ITEM: TIMESTEP 
0 
ITEM: NUMBER OF ATOMS 
12 
ITEM: BOX BOUNDS 
0.000000e+00 4.304126e-01 xlo xhi 
0.000000e+00 4.304126e-01 xlo xhi 
0.000000e+00 8.608251e-01 xlo xhi 
ITEM: ATOMS id type x y z 
0 0 1.076031e-01 1.076031e-01 1.434709e-01 
1 0 1.076031e-01 1.076031e-01 4.304126e-01 
2 0 1.076031e-01 1.076031e-01 7.173543e-01 
3 0 1.076031e-01 3.228094e-01 1.434709e-01 
4 0 1.076031e-01 3.228094e-01 4.304126e-01 
5 0 1.076031e-01 3.228094e-01 7.173543e-01 
6 0 3.228094e-01 1.076031e-01 1.434709e-01 
7 0 3.228094e-01 1.076031e-01 4.304126e-01 
8 0 3.228094e-01 1.076031e-01 7.173543e-01 
9 0 3.228094e-01 3.228094e-01 1.434709e-01 
10 0 3.228094e-01 3.228094e-01 4.304126e-01 
11 0 3.228094e-01 3.228094e-01 7.173543e-01 
ITEM: TIMESTEP 
0 
ITEM: NUMBER OF ATOMS 
12 
ITEM: BOX BOUNDS 
0.000000e+00 4.304126e-01 xlo xhi 
0.000000e+00 4.304126e-01 xlo xhi 
0.000000e+00 8.608251e-01 xlo xhi 
ITEM: ATOMS id type x y z 
0 0 1.075861e-01 1.076287e-01 1.434410e-01 
1 0 1.076372e-01 1.076287e-01 2.131505e-05 
2 0 1.075861e-01 1.076287e-01 2.869630e-01 
3 0 1.075861e-01 3.227838e-01 1.434410e-01 
4 0 1.076372e-01 3.228350e-01 2.131505e-05 
5 0 1.075861e-01 3.228350e-01 2.869630e-01 
6 0 3.228435e-01 1.075776e-01 1.434410e-01 
7 0 3.227924e-01 1.075776e-01 4.303827e-01 
8 0 3.227924e-01 1.075776e-01 2.869630e-01 
9 0 3.227924e-01 3.228350e-01 1.434410e-01 
10 0 3.227924e-01 3.227838e-01 2.131505e-05 
11 0 3.228435e-01 3.227838e-01 2.869630e-01 
ITEM: TIMESTEP 
30 
ITEM: NUMBER OF ATOMS 
12 
ITEM: BOX BOUNDS 
0.000000e+00 4.304126e-01 xlo xhi 
0.000000e+00 4.304126e-01 xlo xhi 
0.000000e+00 8.608251e-01 xlo xhi 
ITEM: ATOMS id type x y z 
0 0 1.070750e-01 1.083956e-01 1.425385e-01 
1 0 1.086583e-01 1.083953e-01 7.465754e-04 
2 0 1.070764e-01 1.083953e-01 2.875227e-01 
3 0 1.070760e-01 3.220164e-01 1.425386e-01 
4 0 1.086592e-01 3.236000e-01 7.394575e-04 
5 0 1.070755e-01 3.236000e-01 2.875542e-01 
6 0 3.238656e-01 1.068118e-01 1.426061e-01 
7 0 3.222817e-01 1.068122e-01 4.294181e-01 
8 0 3.222809e-01 1.068123e-01 2.876179e-01 
9 0 3.222807e-01 3.236015e-01 1.425665e-01 
10 0 3.222811e-01 3.220178e-01 7.114507e-04 
11 0 3.238652e-01 3.220172e-01 2.875396e-01 
ITEM: TIMESTEP 
60 
ITEM: NUMBER OF ATOMS 
12 
ITEM: BOX BOUNDS 
0.000000e+00 4.304126e-01 xlo xhi 
0.000000e+00 4.304126e-01 xlo xhi 
0.000000e+00 8.608251e-01 xlo xhi 
ITEM: ATOMS id type x y z 
0 0 1.065711e-01 1.091497e-01 1.416013e-01 
1 0 1.096613e-01 1.091488e-01 1.645340e-03 
2 0 1.065779e-01 1.091487e-01 2.879352e-01 
3 0 1.065751e-01 3.212581e-01 1.416017e-01 
4 0 1.096647e-01 3.243501e-01 1.608138e-03 
5 0 1.065742e-01 3.243498e-01 2.880265e-01 
6 0 3.248711e-01 1.060608e-01 1.419092e-01 
7 0 3.217807e-01 1.060623e-01 4.282983e-01 
8 0 3.217768e-01 1.060628e-01 2.883022e-01 
9 0 3.217755e-01 3.243571e-01 1.416799e-01 
10 0 3.217782e-01 3.212646e-01 1.530077e-03 
11 0 3.248695e-01 3.212628e-01 2.880054e-01 
ITEM: TIMESTEP 
90 
ITEM: NUMBER OF ATOMS 
12 
ITEM: BOX BOUNDS 
0.000000e+00 4.304126e-01 xlo xhi 
0.000000e+00 4.304126e-01 xlo xhi 
0.000000e+00 8.608251e-01 xlo xhi 
ITEM: ATOMS id type x y z 
0 0 1.060849e-01 1.098707e-01 1.406013e-01 
1 0 1.106220e-01 1.098688e-01 2.724804e-03 
2 0 1.061041e-01 1.098686e-01 2.882117e-01 
3 0 1.060939e-01 3.205255e-01 1.406025e-01 
4 0 1.106296e-01 3.250680e-01 2.642132e-03 
5 0 1.060956e-01 3.250654e-01 2.883715e-01 
6 0 3.258343e-01 1.053446e-01 1.413584e-01 
7 0 3.213029e-01 1.053479e-01 4.270145e-01 
8 0 3.212923e-01 1.053492e-01 2.890378e-01 
9 0 3.212895e-01 3.250856e-01 1.407462e-01 
10 0 3.212970e-01 3.205419e-01 2.503539e-03 
11 0 3.258306e-01 3.205395e-01 2.883591e-01 
ITEM: TIMESTEP 
120 
ITEM: NUMBER OF ATOMS 
12 
ITEM: BOX BOUNDS 
0.000000e+00 4.304126e-01 xlo xhi 
0.000000e+00 4.304126e-01 xlo xhi 
0.000000e+00 8.608251e-01 xlo xhi 
ITEM: ATOMS id type x y z 
0 0 1.056235e-01 1.105412e-01 1.395032e-01 
1 0 1.115214e-01 1.105381e-01 3.997095e-03 
2 0 1.056659e-01 1.105377e-01 2.883667e-01 
3 0 1.056399e-01 3.198320e-01 1.395079e-01 
4 0 1.115324e-01 3.257385e-01 3.812653e-03 
5 0 1.056512e-01 3.257296e-01 2.886191e-01 
6 0 3.267320e-01 1.046803e-01 1.409357e-01 
7 0 3.208597e-01 1.046859e-01 4.255805e-01 
8 0 3.208403e-01 1.046884e-01 2.898725e-01 
9 0 3.208350e-01 3.257703e-01 1.397416e-01 
10 0 3.208494e-01 3.198665e-01 3.537967e-03 
11 0 3.267252e-01 3.198652e-01 2.886302e-01 
ITEM: TIMESTEP 
150 
ITEM: NUMBER OF ATOMS 
12 
ITEM: BOX BOUNDS 
0.000000e+00 4.304126e-01 xlo xhi 
0.000000e+00 4.304126e-01 xlo xhi 
0.000000e+00 8.608251e-01 xlo xhi 
ITEM: ATOMS id type x y z 
0 0 1.051899e-01 1.111486e-01 1.382586e-01 
1 0 1.123483e-01 1.111442e-01 5.486008e-03 
2 0 1.052716e-01 1.111435e-01 2.884189e-01 
3 0 1.052161e-01 3.191857e-01 1.382758e-01 
4 0 1.123572e-01 3.263497e-01 5.047205e-03 
5 0 1.052492e-01 3.263302e-01 2.887811e-01 
6 0 3.275471e-01 1.040803e-01 1.406328e-01 
7 0 3.204594e-01 1.040886e-01 4.240329e-01 
8 0 3.204296e-01 1.040926e-01 2.907717e-01 
9 0 3.204211e-01 3.264011e-01 1.386742e-01 
10 0 3.204447e-01 3.192484e-01 4.642730e-03 
11 0 3.275363e-01 3.192530e-01 2.888328e-01 
ITEM: TIMESTEP 
180 
ITEM: NUMBER OF ATOMS 
12 
ITEM: BOX BOUNDS 
0.000000e+00 4.304126e-01 xlo xhi 
0.000000e+00 4.304126e-01 xlo xhi 
0.000000e+00 8.608251e-01 xlo xhi 
ITEM: ATOMS id type x y z 
0 0 1.047924e-01 1.116713e-01 1.368283e-01 
1 0 1.130818e-01 1.116647e-01 7.199456e-03 
2 0 1.049347e-01 1.116645e-01 2.883901e-01 
3 0 1.048297e-01 3.186037e-01 1.368832e-01 
4 0 1.130823e-01 3.268890e-01 6.412311e-03 
5 0 1.049036e-01 3.268464e-01 2.888719e-01 
6 0 3.282501e-01 1.035656e-01 1.404379e-01 
7 0 3.201160e-01 1.035767e-01 4.224014e-01 
8 0 3.200748e-01 1.035820e-01 2.917983e-01 
9 0 3.200628e-01 3.269605e-01 1.375502e-01 
10 0 3.200970e-01 3.187026e-01 5.857836e-03 
11 0 3.282358e-01 3.187241e-01 2.889674e-01 
ITEM: TIMESTEP 
210 
ITEM: NUMBER OF ATOMS 
12 
ITEM: BOX BOUNDS 
0.000000e+00 4.304126e-01 xlo xhi 
0.000000e+00 4.304126e-01 xlo xhi 
0.000000e+00 8.608251e-01 xlo xhi 
ITEM: ATOMS id type x y z 
0 0 1.044452e-01 1.120775e-01 1.352040e-01 
1 0 1.136883e-01 1.120676e-01 9.103846e-03 
2 0 1.046747e-01 1.120699e-01 2.883115e-01 
3 0 1.044955e-01 3.181146e-01 1.353515e-01 
4 0 1.136711e-01 3.273335e-01 7.901895e-03 
5 0 1.046352e-01 3.272479e-01 2.888950e-01 
6 0 3.287992e-01 1.031665e-01 1.403455e-01 
7 0 3.198497e-01 1.031802e-01 4.206561e-01 
8 0 3.197964e-01 1.031871e-01 2.929478e-01 
9 0 3.197826e-01 3.274208e-01 1.363580e-01 
10 0 3.198271e-01 3.182556e-01 7.180978e-03 
11 0 3.287818e-01 3.183100e-01 2.890267e-01 
ITEM: TIMESTEP 
240 
ITEM: NUMBER OF ATOMS 
12 
ITEM: BOX BOUNDS 
0.000000e+00 4.304126e-01 xlo xhi 
0.000000e+00 4.304126e-01 xlo xhi 
0.000000e+00 8.608251e-01 xlo xhi 
ITEM: ATOMS id type x y z 
0 0 1.041380e-01 1.123658e-01 1.332987e-01 
1 0 1.141779e-01 1.123522e-01 1.125669e-02 
2 0 1.044919e-01 1.123580e-01 2.882089e-01 
3 0 1.042086e-01 3.177151e-01 1.336486e-01 
4 0 1.141328e-01 3.276940e-01 9.528381e-03 
5 0 1.044447e-01 3.275330e-01 2.888753e-01 
6 0 3.291912e-01 1.028839e-01 1.403225e-01 
7 0 3.196614e-01 1.029001e-01 4.189209e-01 
8 0 3.195966e-01 1.029084e-01 2.940888e-01 
9 0 3.195829e-01 3.277750e-01 1.351945e-01 
10 0 3.196358e-01 3.179145e-01 8.444167e-03 
11 0 3.291706e-01 3.180141e-01 2.890475e-01 
ITEM: TIMESTEP 
270 
ITEM: NUMBER OF ATOMS 
12 
ITEM: BOX BOUNDS 
0.000000e+00 4.304126e-01 xlo xhi 
0.000000e+00 4.304126e-01 xlo xhi 
0.000000e+00 8.608251e-01 xlo xhi 
ITEM: ATOMS id type x y z 
0 0 1.038564e-01 1.125395e-01 1.310437e-01 
1 0 1.145678e-01 1.125222e-01 1.369706e-02 
2 0 1.043833e-01 1.125319e-01 2.881101e-01 
3 0 1.039651e-01 3.174014e-01 1.318011e-01 
4 0 1.144751e-01 3.279758e-01 1.130485e-02 
5 0 1.043300e-01 3.277043e-01 2.888444e-01 
6 0 3.294292e-01 1.027144e-01 1.403428e-01 
7 0 3.195487e-01 1.027324e-01 4.172353e-01 
8 0 3.194745e-01 1.027419e-01 2.953277e-01 
9 0 3.194616e-01 3.280154e-01 1.341647e-01 
10 0 3.195210e-01 3.176808e-01 9.565576e-03 
11 0 3.294064e-01 3.178339e-01 2.890352e-01 
ITEM: TIMESTEP 
300 
ITEM: NUMBER OF ATOMS 
12 
ITEM: BOX BOUNDS 
0.000000e+00 4.304126e-01 xlo xhi 
0.000000e+00 4.304126e-01 xlo xhi 
0.000000e+00 8.608251e-01 xlo xhi 
ITEM: ATOMS id type x y z 
0 0 1.035592e-01 1.126221e-01 1.282521e-01 
1 0 1.149150e-01 1.126016e-01 1.660174e-02 
2 0 1.043332e-01 1.126148e-01 2.880372e-01 
3 0 1.037492e-01 3.171502e-01 1.298270e-01 
4 0 1.147279e-01 3.282008e-01 1.314714e-02 
5 0 1.042757e-01 3.277851e-01 2.888153e-01 
6 0 3.295436e-01 1.026347e-01 1.403813e-01 
7 0 3.194961e-01 1.026540e-01 4.157491e-01 
8 0 3.194151e-01 1.026641e-01 2.964412e-01 
9 0 3.194033e-01 3.281666e-01 1.332477e-01 
10 0 3.194671e-01 3.175330e-01 1.052161e-02 
11 0 3.295193e-01 3.177471e-01 2.890156e-01 
ITEM: TIMESTEP 
330 
ITEM: NUMBER OF ATOMS 
12 
ITEM: BOX BOUNDS 
0.000000e+00 4.304126e-01 xlo xhi 
0.000000e+00 4.304126e-01 xlo xhi 
0.000000e+00 8.608251e-01 xlo xhi 
ITEM: ATOMS id type x y z 
0 0 1.031666e-01 1.126478e-01 1.245476e-01 
1 0 1.153219e-01 1.126246e-01 2.035523e-02 
2 0 1.043190e-01 1.126405e-01 2.879997e-01 
3 0 1.035502e-01 3.169385e-01 1.278566e-01 
4 0 1.149288e-01 3.283943e-01 1.500344e-02 
5 0 1.042591e-01 3.278094e-01 2.887973e-01 
6 0 3.295798e-01 1.026107e-01 1.404120e-01 
7 0 3.194807e-01 1.026306e-01 4.144362e-01 
8 0 3.193958e-01 1.026411e-01 2.974026e-01 
9 0 3.193848e-01 3.282559e-01 1.325340e-01 
10 0 3.194511e-01 3.174457e-01 1.126836e-02 
11 0 3.295547e-01 3.177196e-01 2.889986e-01 
ITEM: TIMESTEP 
360 
ITEM: NUMBER OF ATOMS 
12 
ITEM: BOX BOUNDS 
0.000000e+00 4.304126e-01 xlo xhi 
0.000000e+00 4.304126e-01 xlo xhi 
0.000000e+00 8.608251e-01 xlo xhi 
ITEM: ATOMS id type x y z 
0 0 1.023373e-01 1.126529e-01 1.179355e-01 
1 0 1.161527e-01 1.126259e-01 2.698004e-02 
2 0 1.043177e-01 1.126444e-01 2.879883e-01 
3 0 1.033704e-01 3.167554e-01 1.261147e-01 
4 0 1.151011e-01 3.285666e-01 1.670720e-02 
5 0 1.042567e-01 3.278126e-01 2.887886e-01 
6 0 3.295856e-01 1.026075e-01 1.404271e-01 
7 0 3.194792e-01 1.026278e-01 4.133486e-01 
8 0 3.193920e-01 1.026385e-01 2.981506e-01 
9 0 3.193818e-01 3.282981e-01 1.320855e-01 
10 0 3.194490e-01 3.173996e-01 1.174431e-02 
11 0 3.295604e-01 3.177148e-01 2.889884e-01 
ITEM: TIMESTEP 
390 
ITEM: NUMBER OF ATOMS 
12 
ITEM: BOX BOUNDS 
0.000000e+00 4.304126e-01 xlo xhi 
0.000000e+00 4.304126e-01 xlo xhi 
0.000000e+00 8.608251e-01 xlo xhi 
ITEM: ATOMS id type x y z 
0 0 3.989829e-01 7.216961e-02 2.608557e-01 
1 0 3.669157e-01 2.217148e-01 2.453437e-02 
2 0 1.043210e-01 1.126454e-01 2.879894e-01 
3 0 1.032323e-01 3.166162e-01 1.248556e-01 
4 0 1.152377e-01 3.287039e-01 1.793458e-02 
5 0 1.042565e-01 3.278127e-01 2.887846e-01 
6 0 2.273000e-01 1.422827e-01 3.642744e-01 
7 0 3.078797e-01 4.233520e-01 5.023398e-02 
8 0 3.164551e-01 1.038460e-01 2.968309e-01 
9 0 3.193836e-01 3.283084e-01 1.317168e-01 
10 0 3.192909e-01 3.175369e-01 1.219974e-02 
11 0 3.295613e-01 3.177138e-01 2.889811e-01 
ITEM: TIMESTEP 
420 
ITEM: NUMBER OF ATOMS 
12 
ITEM: BOX BOUNDS 
0.000000e+00 4.304126e-01 xlo xhi 
0.000000e+00 4.304126e-01 xlo xhi 
0.000000e+00 8.608251e-01 xlo xhi 
ITEM: ATOMS id type x y z 
0 0 4.049402e-01 6.985127e-02 2.633621e-01 
1 0 3.675648e-01 2.201350e-01 2.439806e-02 
2 0 1.043433e-01 1.126543e-01 2.879949e-01 
3 0 1.029808e-01 3.163634e-01 1.226801e-01 
4 0 1.154650e-01 3.289323e-01 1.989052e-02 
5 0 1.042562e-01 3.278127e-01 2.887815e-01 
6 0 2.268233e-01 1.425015e-01 3.638893e-01 
7 0 3.079440e-01 4.243402e-01 4.999586e-02 
8 0 3.108524e-01 1.059963e-01 2.946910e-01 
9 0 3.193987e-01 3.282002e-01 1.312461e-01 
10 0 3.185559e-01 3.184265e-01 1.298905e-02 
11 0 3.295621e-01 3.177133e-01 2.889742e-01 
ITEM: TIMESTEP 
450 
ITEM: NUMBER OF ATOMS 
12 
ITEM: BOX BOUNDS 
0.000000e+00 4.304126e-01 xlo xhi 
0.000000e+00 4.304126e-01 xlo xhi 
0.000000e+00 8.608251e-01 xlo xhi 
ITEM: ATOMS id type x y z 
0 0 4.078987e-01 6.865118e-02 2.644049e-01 
1 0 3.683987e-01 2.184583e-01 2.421712e-02 
2 0 1.043984e-01 1.126760e-01 2.879987e-01 
3 0 1.022647e-01 3.156425e-01 1.171342e-01 
4 0 1.160776e-01 3.295800e-01 2.470815e-02 
5 0 1.042559e-01 3.278127e-01 2.887778e-01 
6 0 2.260631e-01 1.428604e-01 3.632052e-01 
7 0 3.078026e-01 4.257403e-01 4.975757e-02 
8 0 3.085870e-01 1.068062e-01 2.943197e-01 
9 0 3.194246e-01 3.280615e-01 1.304390e-01 
10 0 3.178491e-01 3.188561e-01 1.418817e-02 
11 0 3.295631e-01 3.177126e-01 2.889660e-01 
ITEM: TIMESTEP 
480 
ITEM: NUMBER OF ATOMS 
12 
ITEM: BOX BOUNDS 
0.000000e+00 4.304126e-01 xlo xhi 
0.000000e+00 4.304126e-01 xlo xhi 
0.000000e+00 8.608251e-01 xlo xhi 
ITEM: ATOMS id type x y z 
0 0 4.090946e-01 6.796965e-02 2.647285e-01 
1 0 3.688157e-01 2.175932e-01 2.413616e-02 
2 0 1.044464e-01 1.126951e-01 2.880003e-01 
3 0 3.141297e-01 9.503948e-02 1.722254e-01 
4 0 1.775082e-01 2.858088e-01 2.019954e-01 
5 0 1.042556e-01 3.278125e-01 2.887769e-01 
6 0 2.254284e-01 1.431696e-01 3.626309e-01 
7 0 3.077057e-01 4.267395e-01 4.959564e-02 
8 0 3.422804e-02 3.711977e-01 6.036695e-02 
9 0 3.194471e-01 3.279729e-01 1.297496e-01 
10 0 3.175059e-01 3.188086e-01 1.509091e-02 
11 0 3.295644e-01 3.177117e-01 2.889599e-01 
ITEM: TIMESTEP 
510 
ITEM: NUMBER OF ATOMS 
12 
ITEM: BOX BOUNDS 
0.000000e+00 4.304126e-01 xlo xhi 
0.000000e+00 4.304126e-01 xlo xhi 
0.000000e+00 8.608251e-01 xlo xhi 
ITEM: ATOMS id type x y z 
0 0 4.090609e-01 6.788466e-02 2.646499e-01 
1 0 3.695351e-01 2.161749e-01 2.402156e-02 
2 0 1.045363e-01 1.127327e-01 2.880048e-01 
3 0 3.136354e-01 9.469020e-02 1.716772e-01 
4 0 1.769970e-01 2.837641e-01 2.014913e-01 
5 0 1.038684e-01 3.280385e-01 2.883174e-01 
6 0 2.254659e-01 1.431789e-01 3.626114e-01 
7 0 3.075694e-01 4.280573e-01 4.943114e-02 
8 0 3.554244e-02 3.733948e-01 6.200352e-02 
9 0 3.194941e-01 3.278973e-01 1.284217e-01 
10 0 3.169373e-01 3.188215e-01 1.660311e-02 
11 0 3.295664e-01 3.177117e-01 2.889506e-01 
ITEM: TIMESTEP 
540 
ITEM: NUMBER OF ATOMS 
12 
ITEM: BOX BOUNDS 
0.000000e+00 4.304126e-01 xlo xhi 
0.000000e+00 4.304126e-01 xlo xhi 
0.000000e+00 8.608251e-01 xlo xhi 
ITEM: ATOMS id type x y z 
0 0 4.089958e-01 6.773777e-02 2.645137e-01 
1 0 3.706587e-01 2.139757e-01 2.387128e-02 
2 0 1.046553e-01 1.127853e-01 2.880158e-01 
3 0 3.133017e-01 9.461289e-02 1.715878e-01 
4 0 1.773221e-01 2.826543e-01 2.019214e-01 
5 0 1.032512e-01 3.284260e-01 2.875663e-01 
6 0 2.255383e-01 1.431969e-01 3.625728e-01 
7 0 3.073645e-01 4.300972e-01 4.924174e-02 
8 0 3.606514e-02 3.742451e-01 6.263296e-02 
9 0 3.195872e-01 3.278661e-01 1.255052e-01 
10 0 3.160417e-01 3.188585e-01 1.944679e-02 
11 0 3.295697e-01 3.177121e-01 2.889401e-01 
ITEM: TIMESTEP 
570 
ITEM: NUMBER OF ATOMS 
12 
ITEM: BOX BOUNDS 
0.000000e+00 4.304126e-01 xlo xhi 
0.000000e+00 4.304126e-01 xlo xhi 
0.000000e+00 8.608251e-01 xlo xhi 
ITEM: ATOMS id type x y z 
0 0 4.089389e-01 6.760854e-02 2.643935e-01 
1 0 3.714682e-01 2.124097e-01 2.380179e-02 
2 0 1.047824e-01 1.128372e-01 2.880220e-01 
3 0 3.131019e-01 9.464243e-02 1.716611e-01 
4 0 1.778086e-01 2.821260e-01 2.025025e-01 
5 0 1.027879e-01 3.287226e-01 2.870419e-01 
6 0 2.256005e-01 1.432131e-01 3.625380e-01 
7 0 3.072009e-01 1.510588e-03 4.911952e-02 
8 0 3.620226e-02 3.744556e-01 6.278644e-02 
9 0 3.197450e-01 3.280352e-01 1.210944e-01 
10 0 3.154103e-01 3.184897e-01 2.322546e-02 
11 0 3.295724e-01 3.177124e-01 2.889330e-01 
ITEM: TIMESTEP 
600 
ITEM: NUMBER OF ATOMS 
12 
ITEM: BOX BOUNDS 
0.000000e+00 4.304126e-01 xlo xhi 
0.000000e+00 4.304126e-01 xlo xhi 
0.000000e+00 8.608251e-01 xlo xhi 
ITEM: ATOMS id type x y z 
0 0 4.089117e-01 6.754154e-02 2.643302e-01 
1 0 3.718151e-01 2.117503e-01 2.380668e-02 
2 0 1.048480e-01 1.128655e-01 2.880264e-01 
3 0 3.130137e-01 9.467465e-02 1.717222e-01 
4 0 1.781043e-01 2.819207e-01 2.028266e-01 
5 0 1.025550e-01 3.288769e-01 2.867512e-01 
6 0 2.256342e-01 1.432219e-01 3.625194e-01 
7 0 3.071268e-01 2.269896e-03 4.912986e-02 
8 0 3.622248e-02 3.744764e-01 6.280040e-02 
9 0 3.204865e-01 3.295033e-01 1.079501e-01 
10 0 3.145501e-01 3.168962e-01 3.691436e-02 
11 0 3.295737e-01 3.177127e-01 2.889307e-01 
ITEM: TIMESTEP 
630 
ITEM: NUMBER OF ATOMS 
12 
ITEM: BOX BOUNDS 
0.000000e+00 4.304126e-01 xlo xhi 
0.000000e+00 4.304126e-01 xlo xhi 
0.000000e+00 8.608251e-01 xlo xhi 
ITEM: ATOMS id type x y z 
0 0 4.087040e-01 6.736644e-02 2.643445e-01 
1 0 4.019843e-01 1.877239e-01 3.496846e-02 
2 0 6.950745e-02 1.428821e-01 2.734435e-01 
3 0 3.404644e-01 1.066303e-01 4.568686e-02 
4 0 1.782536e-01 2.818269e-01 2.029930e-01 
5 0 1.024002e-01 3.289710e-01 2.865807e-01 
6 0 2.256292e-01 1.432203e-01 3.624859e-01 
7 0 2.992148e-01 4.100767e-01 4.633732e-02 
8 0 3.623080e-02 3.744783e-01 6.279822e-02 
9 0 1.150409e-03 9.988468e-02 4.202717e-01 
10 0 1.504680e-01 7.349728e-02 2.683735e-01 
11 0 3.295741e-01 3.177268e-01 2.889322e-01 
ITEM: TIMESTEP 
660 
ITEM: NUMBER OF ATOMS 
12 
ITEM: BOX BOUNDS 
0.000000e+00 4.304126e-01 xlo xhi 
0.000000e+00 4.304126e-01 xlo xhi 
0.000000e+00 8.608251e-01 xlo xhi 
ITEM: ATOMS id type x y z 
0 0 4.080791e-01 6.684383e-02 2.644169e-01 
1 0 4.048481e-01 1.914955e-01 3.545269e-02 
2 0 6.791978e-02 1.453012e-01 2.732516e-01 
3 0 3.380023e-01 1.040660e-01 4.535666e-02 
4 0 1.785885e-01 2.816170e-01 2.033628e-01 
5 0 1.020829e-01 3.291741e-01 2.862217e-01 
6 0 2.256761e-01 1.432635e-01 3.624287e-01 
7 0 2.989568e-01 4.092895e-01 4.626061e-02 
8 0 3.623232e-02 3.744780e-01 6.279709e-02 
9 0 1.150023e-03 9.988534e-02 4.202581e-01 
10 0 1.524795e-01 7.174581e-02 2.685265e-01 
11 0 3.295758e-01 3.177272e-01 2.889318e-01 
ITEM: TIMESTEP 
690 
ITEM: NUMBER OF ATOMS 
12 
ITEM: BOX BOUNDS 
0.000000e+00 4.304126e-01 xlo xhi 
0.000000e+00 4.304126e-01 xlo xhi 
0.000000e+00 8.608251e-01 xlo xhi 
ITEM: ATOMS id type x y z 
0 0 4.072929e-01 6.616028e-02 2.645085e-01 
1 0 4.068497e-01 1.941166e-01 3.575607e-02 
2 0 6.676319e-02 1.476685e-01 2.730733e-01 
3 0 3.361381e-01 1.018744e-01 4.507611e-02 
4 0 1.790845e-01 2.813063e-01 2.038684e-01 
5 0 1.016365e-01 3.294533e-01 2.857357e-01 
6 0 2.257412e-01 1.433262e-01 3.623480e-01 
7 0 2.988456e-01 4.089378e-01 4.624881e-02 
8 0 3.623430e-02 3.744777e-01 6.279553e-02 
9 0 1.149779e-03 9.988637e-02 4.202394e-01 
10 0 1.541826e-01 7.018042e-02 2.686823e-01 
11 0 3.295782e-01 3.177277e-01 2.889313e-01 
ITEM: TIMESTEP 
720 
ITEM: NUMBER OF ATOMS 
12 
ITEM: BOX BOUNDS 
0.000000e+00 4.304126e-01 xlo xhi 
0.000000e+00 4.304126e-01 xlo xhi 
0.000000e+00 8.608251e-01 xlo xhi 
ITEM: ATOMS id type x y z 
0 0 4.063363e-01 6.530014e-02 2.646211e-01 
1 0 4.084870e-01 1.962554e-01 3.598263e-02 
2 0 6.595368e-02 1.500603e-01 2.729022e-01 
3 0 3.347151e-01 1.003556e-01 4.486321e-02 
4 0 1.797974e-01 2.808595e-01 2.045971e-01 
5 0 1.009399e-01 3.298851e-01 2.849996e-01 
6 0 2.258349e-01 1.434201e-01 3.622304e-01 
7 0 2.986819e-01 4.084047e-01 4.624055e-02 
8 0 3.623839e-02 3.744772e-01 6.279306e-02 
9 0 1.149317e-03 9.988777e-02 4.202123e-01 
10 0 1.558285e-01 6.859490e-02 2.688803e-01 
11 0 3.295817e-01 3.177286e-01 2.889305e-01 
ITEM: TIMESTEP 
750 
ITEM: NUMBER OF ATOMS 
12 
ITEM: BOX BOUNDS 
0.000000e+00 4.304126e-01 xlo xhi 
0.000000e+00 4.304126e-01 xlo xhi 
0.000000e+00 8.608251e-01 xlo xhi 
ITEM: ATOMS id type x y z 
0 0 4.052700e-01 6.431364e-02 2.647489e-01 
1 0 4.099341e-01 1.981417e-01 3.616897e-02 
2 0 6.539268e-02 1.524765e-01 2.727400e-01 
3 0 3.335716e-01 9.936948e-02 4.469157e-02 
4 0 1.807516e-01 2.802639e-01 2.055674e-01 
5 0 9.998804e-02 3.304742e-01 2.840308e-01 
6 0 2.259552e-01 1.435414e-01 3.620846e-01 
7 0 2.984577e-01 4.076605e-01 4.623052e-02 
8 0 3.624232e-02 3.744771e-01 6.278997e-02 
9 0 1.149341e-03 9.989001e-02 4.201778e-01 
10 0 1.572293e-01 6.716704e-02 2.690955e-01 
11 0 3.295864e-01 3.177297e-01 2.889294e-01 
ITEM: TIMESTEP 
780 
ITEM: NUMBER OF ATOMS 
12 
ITEM: BOX BOUNDS 
0.000000e+00 4.304126e-01 xlo xhi 
0.000000e+00 4.304126e-01 xlo xhi 
0.000000e+00 8.608251e-01 xlo xhi 
ITEM: ATOMS id type x y z 
0 0 4.041793e-01 6.327907e-02 2.648833e-01 
1 0 4.112334e-01 1.998304e-01 3.632633e-02 
2 0 6.499865e-02 1.548376e-01 2.725927e-01 
3 0 3.326460e-01 9.884538e-02 4.455009e-02 
4 0 1.818949e-01 2.795595e-01 2.067000e-01 
5 0 9.886527e-02 3.311574e-01 2.829336e-01 
6 0 2.261104e-01 1.437054e-01 3.618885e-01 
7 0 2.981665e-01 4.066708e-01 4.621684e-02 
8 0 3.624900e-02 3.744771e-01 6.278582e-02 
9 0 1.149867e-03 9.989282e-02 4.201374e-01 
10 0 1.584242e-01 6.584350e-02 2.693352e-01 
11 0 3.295928e-01 3.177313e-01 2.889277e-01 
ITEM: TIMESTEP 
810 
ITEM: NUMBER OF ATOMS 
12 
ITEM: BOX BOUNDS 
0.000000e+00 4.304126e-01 xlo xhi 
0.000000e+00 4.304126e-01 xlo xhi 
0.000000e+00 8.608251e-01 xlo xhi 
ITEM: ATOMS id type x y z 
0 0 4.031168e-01 6.224883e-02 2.650193e-01 
1 0 4.124198e-01 2.013669e-01 3.646242e-02 
2 0 6.472580e-02 1.570765e-01 2.724624e-01 
3 0 3.318882e-01 9.869944e-02 4.442987e-02 
4 0 1.832091e-01 2.787533e-01 2.079725e-01 
5 0 9.759665e-02 3.319175e-01 2.817477e-01 
6 0 2.262937e-01 1.439073e-01 3.616609e-01 
7 0 2.978299e-01 4.054474e-01 4.619936e-02 
8 0 3.625675e-02 3.744778e-01 6.278081e-02 
9 0 1.150446e-03 9.989585e-02 4.200934e-01 
10 0 1.593918e-01 6.463482e-02 2.695912e-01 
11 0 3.296009e-01 3.177331e-01 2.889255e-01 
ITEM: TIMESTEP 
840 
ITEM: NUMBER OF ATOMS 
12 
ITEM: BOX BOUNDS 
0.000000e+00 4.304126e-01 xlo xhi 
0.000000e+00 4.304126e-01 xlo xhi 
0.000000e+00 8.608251e-01 xlo xhi 
ITEM: ATOMS id type x y z 
0 0 4.021182e-01 6.126143e-02 2.651535e-01 
1 0 4.135112e-01 2.027742e-01 3.658153e-02 
2 0 6.454555e-02 1.591411e-01 2.723509e-01 
3 0 3.312540e-01 9.883117e-02 4.432750e-02 
4 0 1.846847e-01 2.778431e-01 2.093427e-01 
5 0 9.621693e-02 3.327532e-01 2.805008e-01 
6 0 2.265043e-01 1.441464e-01 3.613981e-01 
7 0 2.974609e-01 4.040940e-01 4.617935e-02 
8 0 3.626540e-02 3.744793e-01 6.277496e-02 
9 0 1.151425e-03 9.989884e-02 4.200484e-01 
10 0 1.601752e-01 6.351748e-02 2.698672e-01 
11 0 3.296120e-01 3.177353e-01 2.889224e-01 
ITEM: TIMESTEP 
870 
ITEM: NUMBER OF ATOMS 
12 
ITEM: BOX BOUNDS 
0.000000e+00 4.304126e-01 xlo xhi 
0.000000e+00 4.304126e-01 xlo xhi 
0.000000e+00 8.608251e-01 xlo xhi 
ITEM: ATOMS id type x y z 
0 0 4.011900e-01 6.032745e-02 2.652858e-01 
1 0 4.145329e-01 2.040848e-01 3.668798e-02 
2 0 6.441596e-02 1.610491e-01 2.722561e-01 
3 0 3.307160e-01 9.916662e-02 4.423921e-02 
4 0 1.862624e-01 2.768785e-01 2.107497e-01 
5 0 9.477592e-02 3.336372e-01 2.792415e-01 
6 0 2.267470e-01 1.444252e-01 3.610961e-01 
7 0 2.970653e-01 4.026583e-01 4.615731e-02 
8 0 3.627462e-02 3.744819e-01 6.276821e-02 
9 0 1.152770e-03 9.990209e-02 4.199999e-01 
10 0 1.608284e-01 6.247718e-02 2.701625e-01 
11 0 3.296264e-01 3.177382e-01 2.889175e-01 
ITEM: TIMESTEP 
900 
ITEM: NUMBER OF ATOMS 
12 
ITEM: BOX BOUNDS 
0.000000e+00 4.304126e-01 xlo xhi 
0.000000e+00 4.304126e-01 xlo xhi 
0.000000e+00 8.608251e-01 xlo xhi 
ITEM: ATOMS id type x y z 
0 0 4.003201e-01 5.943862e-02 2.654181e-01 
1 0 4.155150e-01 2.053374e-01 3.678606e-02 
2 0 6.432138e-02 1.628297e-01 2.721747e-01 
3 0 3.302351e-01 9.963087e-02 4.415971e-02 
4 0 1.878873e-01 2.758812e-01 2.121449e-01 
5 0 9.324901e-02 3.345698e-01 2.779722e-01 
6 0 2.270107e-01 1.447334e-01 3.607640e-01 
7 0 2.966553e-01 4.011705e-01 4.613361e-02 
8 0 3.628457e-02 3.744860e-01 6.276039e-02 
9 0 1.154811e-03 9.990623e-02 4.199450e-01 
10 0 1.613702e-01 6.149672e-02 2.704858e-01 
11 0 3.296454e-01 3.177420e-01 2.889102e-01 
ITEM: TIMESTEP 
930 
ITEM: NUMBER OF ATOMS 
12 
ITEM: BOX BOUNDS 
0.000000e+00 4.304126e-01 xlo xhi 
0.000000e+00 4.304126e-01 xlo xhi 
0.000000e+00 8.608251e-01 xlo xhi 
ITEM: ATOMS id type x y z 
0 0 3.995093e-01 5.859897e-02 2.655505e-01 
1 0 4.164644e-01 2.065405e-01 3.687720e-02 
2 0 6.424468e-02 1.644913e-01 2.721054e-01 
3 0 3.297730e-01 1.001351e-01 4.408594e-02 
4 0 1.895591e-01 2.748438e-01 2.135256e-01 
5 0 9.164786e-02 3.355551e-01 2.767001e-01 
6 0 2.273063e-01 1.450853e-01 3.603836e-01 
7 0 2.962436e-01 3.996876e-01 4.610929e-02 
8 0 3.629723e-02 3.744917e-01 6.275108e-02 
9 0 1.157545e-03 9.991133e-02 4.198826e-01 
10 0 1.618307e-01 6.052306e-02 2.708542e-01 
11 0 3.296695e-01 3.177471e-01 2.889001e-01 
ITEM: TIMESTEP 
960 
ITEM: NUMBER OF ATOMS 
12 
ITEM: BOX BOUNDS 
0.000000e+00 4.304126e-01 xlo xhi 
0.000000e+00 4.304126e-01 xlo xhi 
0.000000e+00 8.608251e-01 xlo xhi 
ITEM: ATOMS id type x y z 
0 0 3.987470e-01 5.779998e-02 2.656847e-01 
1 0 4.173953e-01 2.077121e-01 3.696338e-02 
2 0 6.417872e-02 1.660560e-01 2.720462e-01 
3 0 3.293182e-01 1.006622e-01 4.401602e-02 
4 0 1.912544e-01 2.737825e-01 2.148846e-01 
5 0 9.001933e-02 3.365550e-01 2.754597e-01 
6 0 2.276391e-01 1.454973e-01 3.599509e-01 
7 0 2.958345e-01 3.982002e-01 4.608410e-02 
8 0 3.631264e-02 3.744998e-01 6.274017e-02 
9 0 1.161897e-03 9.991822e-02 4.198111e-01 
10 0 1.622053e-01 5.954782e-02 2.712655e-01 
11 0 3.297018e-01 3.177542e-01 2.888863e-01 
ITEM: TIMESTEP 
990 
ITEM: NUMBER OF ATOMS 
12 
ITEM: BOX BOUNDS 
0.000000e+00 4.304126e-01 xlo xhi 
0.000000e+00 4.304126e-01 xlo xhi 
0.000000e+00 8.608251e-01 xlo xhi 
ITEM: ATOMS id type x y z 
0 0 3.980233e-01 5.703335e-02 2.658223e-01 
1 0 4.183179e-01 2.088653e-01 3.704604e-02 
2 0 6.411896e-02 1.675435e-01 2.719952e-01 
3 0 3.288602e-01 1.011918e-01 4.394841e-02 
4 0 1.929522e-01 2.727071e-01 2.162070e-01 
5 0 8.836759e-02 3.375665e-01 2.742523e-01 
6 0 2.280117e-01 1.459654e-01 3.594599e-01 
7 0 2.954219e-01 3.966969e-01 4.605774e-02 
8 0 3.633150e-02 3.745106e-01 6.272735e-02 
9 0 1.167443e-03 9.992652e-02 4.197300e-01 
10 0 1.625118e-01 5.854593e-02 2.717294e-01 
11 0 3.297442e-01 3.177638e-01 2.888675e-01 
ITEM: TIMESTEP 
1020 
ITEM: NUMBER OF ATOMS 
12 
ITEM: BOX BOUNDS 
0.000000e+00 4.304126e-01 xlo xhi 
0.000000e+00 4.304126e-01 xlo xhi 
0.000000e+00 8.608251e-01 xlo xhi 
ITEM: ATOMS id type x y z 
0 0 3.973279e-01 5.629008e-02 2.659654e-01 
1 0 4.192422e-01 2.100121e-01 3.712642e-02 
2 0 6.406241e-02 1.689728e-01 2.719509e-01 
3 0 3.283911e-01 1.017137e-01 4.388189e-02 
4 0 1.946306e-01 2.716269e-01 2.174834e-01 
5 0 8.670685e-02 3.385802e-01 2.730802e-01 
6 0 2.284301e-01 1.464941e-01 3.589109e-01 
7 0 2.950083e-01 3.951862e-01 4.603043e-02 
8 0 3.635354e-02 3.745250e-01 6.271243e-02 
9 0 1.174315e-03 9.993633e-02 4.196387e-01 
10 0 1.627620e-01 5.751799e-02 2.722393e-01 
11 0 3.297996e-01 3.177769e-01 2.888417e-01 
ITEM: TIMESTEP 
1050 
ITEM: NUMBER OF ATOMS 
12 
ITEM: BOX BOUNDS 
0.000000e+00 4.304126e-01 xlo xhi 
0.000000e+00 4.304126e-01 xlo xhi 
0.000000e+00 8.608251e-01 xlo xhi 
ITEM: ATOMS id type x y z 
0 0 3.966512e-01 5.556140e-02 2.661160e-01 
1 0 4.201769e-01 2.111631e-01 3.720562e-02 
2 0 6.400534e-02 1.703563e-01 2.719123e-01 
3 0 3.279082e-01 1.022317e-01 4.381596e-02 
4 0 1.962820e-01 2.705467e-01 2.187254e-01 
5 0 8.504488e-02 3.395897e-01 2.719504e-01 
6 0 2.288916e-01 1.470874e-01 3.583071e-01 
7 0 2.945953e-01 3.936746e-01 4.600236e-02 
8 0 3.637864e-02 3.745436e-01 6.269534e-02 
9 0 1.183082e-03 9.994776e-02 4.195382e-01 
10 0 1.629658e-01 5.648165e-02 2.727768e-01 
11 0 3.298686e-01 3.177942e-01 2.888090e-01 
ITEM: TIMESTEP 
1080 
ITEM: NUMBER OF ATOMS 
12 
ITEM: BOX BOUNDS 
0.000000e+00 4.304126e-01 xlo xhi 
0.000000e+00 4.304126e-01 xlo xhi 
0.000000e+00 8.608251e-01 xlo xhi 
ITEM: ATOMS id type x y z 
0 0 3.959853e-01 5.484033e-02 2.662761e-01 
1 0 4.211287e-01 2.123262e-01 3.728450e-02 
2 0 6.394770e-02 1.717137e-01 2.718782e-01 
3 0 3.274039e-01 1.027368e-01 4.374930e-02 
4 0 1.978944e-01 2.694691e-01 2.199390e-01 
5 0 8.340181e-02 3.405832e-01 2.708606e-01 
6 0 2.293957e-01 1.477452e-01 3.576459e-01 
7 0 2.941857e-01 3.921749e-01 4.597368e-02 
8 0 3.640637e-02 3.745679e-01 6.267593e-02 
9 0 1.193259e-03 9.996085e-02 4.194287e-01 
10 0 1.631249e-01 5.541964e-02 2.733509e-01 
11 0 3.299524e-01 3.178167e-01 2.887679e-01 
ITEM: TIMESTEP 
1110 
ITEM: NUMBER OF ATOMS 
12 
ITEM: BOX BOUNDS 
0.000000e+00 4.304126e-01 xlo xhi 
0.000000e+00 4.304126e-01 xlo xhi 
0.000000e+00 8.608251e-01 xlo xhi 
ITEM: ATOMS id type x y z 
0 0 3.953252e-01 5.412299e-02 2.664470e-01 
1 0 4.221002e-01 2.135040e-01 3.736356e-02 
2 0 6.388849e-02 1.730534e-01 2.718478e-01 
3 0 3.268789e-01 1.032306e-01 4.368162e-02 
4 0 1.994702e-01 2.683921e-01 2.211298e-01 
5 0 8.178015e-02 3.415544e-01 2.698102e-01 
6 0 2.299391e-01 1.484620e-01 3.569452e-01 
7 0 2.937790e-01 3.906841e-01 4.594423e-02 
8 0 3.643756e-02 3.745990e-01 6.265388e-02 
9 0 1.204858e-03 9.997563e-02 4.193100e-01 
10 0 1.632447e-01 5.432590e-02 2.739679e-01 
11 0 3.300562e-01 3.178458e-01 2.887160e-01 
ITEM: TIMESTEP 
1140 
ITEM: NUMBER OF ATOMS 
12 
ITEM: BOX BOUNDS 
0.000000e+00 4.304126e-01 xlo xhi 
0.000000e+00 4.304126e-01 xlo xhi 
0.000000e+00 8.608251e-01 xlo xhi 
ITEM: ATOMS id type x y z 
0 0 3.946702e-01 5.340983e-02 2.666294e-01 
1 0 4.230882e-01 2.146919e-01 3.744286e-02 
2 0 6.382731e-02 1.743749e-01 2.718208e-01 
3 0 3.263326e-01 1.037090e-01 4.361275e-02 
4 0 2.009995e-01 2.673166e-01 2.223033e-01 
5 0 8.017798e-02 3.425053e-01 2.687952e-01 
6 0 2.305083e-01 1.492258e-01 3.562124e-01 
7 0 2.933720e-01 3.891854e-01 4.591377e-02 
8 0 3.647283e-02 3.746389e-01 6.262871e-02 
9 0 1.218238e-03 9.999218e-02 4.191830e-01 
10 0 1.633353e-01 5.320497e-02 2.746179e-01 
11 0 3.301838e-01 3.178832e-01 2.886516e-01 
ITEM: TIMESTEP 
1170 
ITEM: NUMBER OF ATOMS 
12 
ITEM: BOX BOUNDS 
0.000000e+00 4.304126e-01 xlo xhi 
0.000000e+00 4.304126e-01 xlo xhi 
0.000000e+00 8.608251e-01 xlo xhi 
ITEM: ATOMS id type x y z 
0 0 3.940186e-01 5.270049e-02 2.668239e-01 
1 0 4.240908e-01 2.158866e-01 3.752259e-02 
2 0 6.376387e-02 1.756792e-01 2.717969e-01 
3 0 3.257673e-01 1.041736e-01 4.354267e-02 
4 0 2.024759e-01 2.662438e-01 2.234640e-01 
5 0 7.859363e-02 3.434362e-01 2.678115e-01 
6 0 2.311118e-01 1.500373e-01 3.554399e-01 
7 0 2.929645e-01 3.876823e-01 4.588249e-02 
8 0 3.651294e-02 3.746885e-01 6.260019e-02 
9 0 1.233359e-03 1.000105e-01 4.190467e-01 
10 0 1.633925e-01 5.206413e-02 2.752946e-01 
11 0 3.303411e-01 3.179315e-01 2.885704e-01 
ITEM: TIMESTEP 
1200 
ITEM: NUMBER OF ATOMS 
12 
ITEM: BOX BOUNDS 
0.000000e+00 4.304126e-01 xlo xhi 
0.000000e+00 4.304126e-01 xlo xhi 