ITEM: TIMESTEP 
0 
ITEM: NUMBER OF ATOMS 
12 
ITEM: BOX BOUNDS 
0.000000e+00 4.304126e-01 xlo xhi 
0.000000e+00 4.304126e-01 xlo xhi 
0.000000e+00 8.608251e-01 xlo xhi 
ITEM: ATOMS id type x y z 
0 0 1.076031e-01 1.076031e-01 1.434709e-01 
1 0 1.076031e-01 1.076031e-01 4.304126e-01 
2 0 1.076031e-01 1.076031e-01 7.173543e-01 
3 0 1.076031e-01 3.228094e-01 1.434709e-01 
4 0 1.076031e-01 3.228094e-01 4.304126e-01 
5 0 1.076031e-01 3.228094e-01 7.173543e-01 
6 0 3.228094e-01 1.076031e-01 1.434709e-01 
7 0 3.228094e-01 1.076031e-01 4.304126e-01 
8 0 3.228094e-01 1.076031e-01 7.173543e-01 
9 0 3.228094e-01 3.228094e-01 1.434709e-01 
10 0 3.228094e-01 3.228094e-01 4.304126e-01 
11 0 3.228094e-01 3.228094e-01 7.173543e-01 
ITEM: TIMESTEP 
0 
ITEM: NUMBER OF ATOMS 
12 
ITEM: BOX BOUNDS 
0.000000e+00 4.304126e-01 xlo xhi 
0.000000e+00 4.304126e-01 xlo xhi 
0.000000e+00 8.608251e-01 xlo xhi 
ITEM: ATOMS id type x y z 
0 0 1.082889e-01 1.080319e-01 1.430424e-01 
1 0 1.082889e-01 1.080319e-01 4.310123e-01 
2 0 1.072608e-01 1.080319e-01 7.179540e-01 
3 0 1.072608e-01 3.232375e-01 1.430424e-01 
4 0 1.072608e-01 3.232375e-01 4.310123e-01 
5 0 1.072608e-01 3.232375e-01 7.169260e-01 
6 0 3.234945e-01 1.080319e-01 1.430424e-01 
7 0 3.224664e-01 1.070037e-01 4.299841e-01 
8 0 3.234945e-01 1.070037e-01 7.169260e-01 
9 0 3.224664e-01 3.222093e-01 1.430424e-01 
10 0 3.224664e-01 3.222094e-01 4.310123e-01 
11 0 3.224664e-01 3.222093e-01 7.179541e-01 
ITEM: TIMESTEP 
30 
ITEM: NUMBER OF ATOMS 
12 
ITEM: BOX BOUNDS 
0.000000e+00 4.304126e-01 xlo xhi 
0.000000e+00 4.304126e-01 xlo xhi 
0.000000e+00 8.608251e-01 xlo xhi 
ITEM: ATOMS id type x y z 
0 0 1.291663e-01 1.212080e-01 1.301168e-01 
1 0 1.291588e-01 1.212082e-01 4.489983e-01 
2 0 9.679915e-02 1.211866e-01 7.360513e-01 
3 0 9.724447e-02 3.357636e-01 1.301205e-01 
4 0 9.729550e-02 3.358353e-01 4.489614e-01 
5 0 9.722244e-02 3.358693e-01 7.041528e-01 
6 0 3.437932e-01 1.211403e-01 1.301211e-01 
7 0 3.119020e-01 8.923424e-02 4.171156e-01 
8 0 3.442621e-01 8.920222e-02 7.041311e-01 
9 0 3.118756e-01 3.039603e-01 1.301279e-01 
10 0 3.119059e-01 3.039893e-01 4.490057e-01 
11 0 3.118976e-01 3.039677e-01 7.360358e-01 
ITEM: TIMESTEP 
60 
ITEM: NUMBER OF ATOMS 
12 
ITEM: BOX BOUNDS 
0.000000e+00 4.304126e-01 xlo xhi 
0.000000e+00 4.304126e-01 xlo xhi 
0.000000e+00 8.608251e-01 xlo xhi 
ITEM: ATOMS id type x y z 
0 0 1.506789e-01 1.350592e-01 1.170818e-01 
1 0 1.500229e-01 1.351622e-01 4.668267e-01 
2 0 8.656767e-02 1.350026e-01 7.543077e-01 
3 0 8.773277e-02 3.476170e-01 1.171056e-01 
4 0 8.796647e-02 3.479437e-01 4.667124e-01 
5 0 8.751635e-02 3.481750e-01 6.915586e-01 
6 0 3.638356e-01 1.337811e-01 1.170856e-01 
7 0 3.013815e-01 7.173078e-02 4.042922e-01 
8 0 3.650584e-01 7.162550e-02 6.914634e-01 
9 0 3.004441e-01 2.860253e-01 1.171415e-01 
10 0 3.008371e-01 2.853392e-01 4.669807e-01 
11 0 3.008802e-01 2.853129e-01 7.543515e-01 
ITEM: TIMESTEP 
90 
ITEM: NUMBER OF ATOMS 
12 
ITEM: BOX BOUNDS 
0.000000e+00 4.304126e-01 xlo xhi 
0.000000e+00 4.304126e-01 xlo xhi 
0.000000e+00 8.608251e-01 xlo xhi 
ITEM: ATOMS id type x y z 
0 0 1.728031e-01 1.495528e-01 1.039604e-01 
1 0 1.696059e-01 1.504095e-01 4.839238e-01 
2 0 7.775316e-02 1.499124e-01 7.789315e-01 
3 0 7.871142e-02 3.587557e-01 1.040333e-01 
4 0 7.928650e-02 3.596147e-01 4.840402e-01 
5 0 7.796515e-02 3.602446e-01 6.792509e-01 
6 0 3.856261e-01 1.417536e-01 1.039650e-01 
7 0 2.921071e-01 5.393090e-02 3.919452e-01 
8 0 3.851149e-01 5.371721e-02 6.793249e-01 
9 0 2.863087e-01 2.723727e-01 1.041049e-01 
10 0 2.891787e-01 2.662869e-01 4.849302e-01 
11 0 2.894882e-01 2.663354e-01 7.797688e-01 
ITEM: TIMESTEP 
120 
ITEM: NUMBER OF ATOMS 
12 
ITEM: BOX BOUNDS 
0.000000e+00 4.304126e-01 xlo xhi 
0.000000e+00 4.304126e-01 xlo xhi 
0.000000e+00 8.608251e-01 xlo xhi 
ITEM: ATOMS id type x y z 
0 0 1.867209e-01 1.545284e-01 8.685878e-02 
1 0 1.773536e-01 1.560997e-01 5.006410e-01 
2 0 6.957681e-02 1.654485e-01 7.323385e-01 
3 0 7.013898e-02 3.695268e-01 8.701861e-02 
4 0 7.114821e-02 3.710049e-01 5.012974e-01 
5 0 7.351719e-02 3.670821e-01 6.667823e-01 
6 0 4.100468e-01 1.455358e-01 8.687142e-02 
7 0 2.832953e-01 3.602520e-02 3.797937e-01 
8 0 4.000528e-01 4.057953e-02 6.675273e-01 
9 0 2.765893e-01 2.709184e-01 8.808089e-02 
10 0 2.853001e-01 2.547458e-01 5.027695e-01 
11 0 2.777523e-01 2.471600e-01 7.438311e-01 
ITEM: TIMESTEP 
150 
ITEM: NUMBER OF ATOMS 
12 
ITEM: BOX BOUNDS 
0.000000e+00 4.304126e-01 xlo xhi 
0.000000e+00 4.304126e-01 xlo xhi 
0.000000e+00 8.608251e-01 xlo xhi 
ITEM: ATOMS id type x y z 
0 0 1.803465e-01 1.344363e-01 1.244649e-01 
1 0 1.589884e-01 1.371626e-01 5.181075e-01 
2 0 6.318346e-02 1.840365e-01 6.120961e-01 
3 0 6.190657e-02 3.805221e-01 1.238421e-01 
4 0 5.822068e-02 3.879705e-01 5.470100e-01 
5 0 9.477182e-02 3.475046e-01 6.255444e-01 
6 0 4.836988e-03 1.486755e-01 1.246184e-01 
7 0 2.742337e-01 1.815408e-02 3.673258e-01 
8 0 3.932698e-01 4.598397e-02 6.563279e-01 
9 0 2.824131e-01 2.903796e-01 1.122757e-01 
10 0 3.002861e-01 2.601605e-01 5.211906e-01 
11 0 2.653209e-01 2.276072e-01 6.484570e-01 
ITEM: TIMESTEP 
180 
ITEM: NUMBER OF ATOMS 
12 
ITEM: BOX BOUNDS 
0.000000e+00 4.304126e-01 xlo xhi 
0.000000e+00 4.304126e-01 xlo xhi 
0.000000e+00 8.608251e-01 xlo xhi 
ITEM: ATOMS id type x y z 
0 0 3.452766e-01 3.278670e-01 3.813943e+00 
1 0 1.048173e-01 4.093817e-01 5.290973e-01 
2 0 5.493830e-02 3.405879e-01 -5.873887e+00 
3 0 1.553530e-02 1.958620e-01 7.816458e+00 
4 0 2.527518e-01 1.897773e-02 9.825327e+00 
5 0 1.738230e-01 2.922429e-01 -1.749037e+00 
6 0 2.862983e-02 1.511114e-01 2.642788e-01 
7 0 4.418721e-02 2.006884e-01 3.633904e-01 
8 0 1.547385e-01 1.922917e-01 -6.714808e+00 
9 0 2.903339e-01 3.118162e-01 2.296256e-01 
10 0 4.491966e-02 3.793947e-01 6.274764e-01 
11 0 1.497535e-01 1.180848e-01 3.667806e-01 
ITEM: TIMESTEP 
210 
ITEM: NUMBER OF ATOMS 
12 
ITEM: BOX BOUNDS 
0.000000e+00 4.304126e-01 xlo xhi 
0.000000e+00 4.304126e-01 xlo xhi 
0.000000e+00 8.608251e-01 xlo xhi 
ITEM: ATOMS id type x y z 
0 0 4.184545e-02 1.894573e-01 9.220993e+00 
1 0 4.129831e-01 2.398241e-01 3.868374e+00 
2 0 7.553160e-02 1.869536e-01 -1.870098e+01 
3 0 3.605761e-01 6.850732e-02 2.245147e+01 
4 0 1.748976e-01 8.863960e-02 1.969766e+01 
5 0 3.493169e-01 1.083086e-01 -4.746515e+00 
6 0 7.564769e-02 1.374901e-01 -8.059342e+01 
7 0 1.725642e-01 1.316196e-01 3.299969e-01 
8 0 1.984034e-01 2.641279e-01 -1.455398e+01 
9 0 2.983154e-01 3.330247e-01 3.470858e-01 
10 0 1.471620e-03 4.272638e-01 -2.797440e+00 
11 0 4.908517e-02 4.085613e-01 4.139823e-02 
ITEM: TIMESTEP 
240 
ITEM: NUMBER OF ATOMS 
12 
ITEM: BOX BOUNDS 
0.000000e+00 4.304126e-01 xlo xhi 
0.000000e+00 4.304126e-01 xlo xhi 
0.000000e+00 8.608251e-01 xlo xhi 
ITEM: ATOMS id type x y z 
0 0 1.688268e-01 5.104758e-02 1.462804e+01 
1 0 2.336069e-01 3.593293e-03 7.676281e+00 
2 0 9.611852e-02 3.332078e-02 -3.152807e+01 
3 0 2.752102e-01 3.715586e-01 3.708649e+01 
4 0 9.703745e-02 1.583080e-01 2.956999e+01 
5 0 9.440053e-02 3.547879e-01 -7.743997e+00 
6 0 1.194964e-01 1.037504e-02 -1.868097e+02 
7 0 2.996424e-01 7.482658e-02 2.996271e-01 
8 0 2.420747e-01 3.359628e-01 -2.239316e+01 
9 0 3.060838e-01 3.543650e-01 4.647475e-01 
10 0 3.052307e-02 1.002644e-01 -6.740864e+00 
11 0 3.809764e-01 2.686551e-01 2.224084e+00 
ITEM: TIMESTEP 
270 
ITEM: NUMBER OF ATOMS 
12 
ITEM: BOX BOUNDS 
0.000000e+00 4.304126e-01 xlo xhi 
0.000000e+00 4.304126e-01 xlo xhi 
0.000000e+00 8.608251e-01 xlo xhi 
ITEM: ATOMS id type x y z 
0 0 2.958082e-01 3.430504e-01 2.003509e+01 
1 0 5.423073e-02 1.977750e-01 1.148419e+01 
2 0 1.167054e-01 3.101005e-01 -4.435516e+01 
3 0 1.898444e-01 2.441974e-01 5.172150e+01 
4 0 1.917734e-02 2.279764e-01 3.944231e+01 
5 0 2.705118e-01 1.708039e-01 -1.074026e+01 
6 0 1.633451e-01 3.136726e-01 -2.930260e+02 
7 0 4.266971e-01 1.784022e-02 2.690724e-01 
8 0 2.857460e-01 4.077977e-01 -3.023234e+01 
9 0 3.138404e-01 3.758814e-01 5.825923e-01 
10 0 5.895951e-02 2.037283e-01 -1.068551e+01 
11 0 2.824906e-01 1.287661e-01 4.495614e+00 
ITEM: TIMESTEP 
300 
ITEM: NUMBER OF ATOMS 
12 
ITEM: BOX BOUNDS 
0.000000e+00 4.304126e-01 xlo xhi 
0.000000e+00 4.304126e-01 xlo xhi 
0.000000e+00 8.608251e-01 xlo xhi 
ITEM: ATOMS id type x y z 
0 0 4.227895e-01 2.046407e-01 2.544214e+01 
1 0 3.052671e-01 3.919568e-01 1.529209e+01 
2 0 1.372924e-01 1.564676e-01 -5.718225e+01 
3 0 1.044785e-01 1.168361e-01 6.635652e+01 
4 0 3.717298e-01 2.976448e-01 4.931464e+01 
5 0 2.676409e-02 2.742519e-02 -1.371829e+01 
6 0 2.071938e-01 1.865576e-01 -3.992423e+02 
7 0 1.233437e-01 3.912499e-01 2.384782e-01 
8 0 3.294174e-01 4.921999e-02 -3.807151e+01 
9 0 3.215925e-01 3.974143e-01 7.004767e-01 
10 0 7.684230e-02 2.665869e-01 -1.464838e+01 
11 0 1.840048e-01 4.192897e-01 6.767143e+00 
ITEM: TIMESTEP 
330 
ITEM: NUMBER OF ATOMS 
12 
ITEM: BOX BOUNDS 
0.000000e+00 4.304126e-01 xlo xhi 
0.000000e+00 4.304126e-01 xlo xhi 
0.000000e+00 8.608251e-01 xlo xhi 
ITEM: ATOMS id type x y z 
0 0 1.193584e-01 6.623103e-02 3.084919e+01 
1 0 1.258909e-01 1.557260e-01 1.910000e+01 
2 0 1.578793e-01 2.834731e-03 -7.000934e+01 
3 0 1.911263e-02 4.198874e-01 8.099154e+01 
4 0 2.938697e-01 3.673132e-01 5.918697e+01 
5 0 2.181521e-01 2.904540e-01 -1.669857e+01 
6 0 2.510425e-01 5.944253e-02 -5.054586e+02 
7 0 2.504031e-01 3.342466e-01 2.078794e-01 
8 0 3.730887e-01 1.210549e-01 -4.591069e+01 
9 0 3.293443e-01 4.189477e-01 8.065060e-01 
10 0 9.000199e-02 3.534506e-01 -1.860901e+01 
11 0 8.551895e-02 2.794007e-01 9.038673e+00 
ITEM: TIMESTEP 
360 
ITEM: NUMBER OF ATOMS 
12 
ITEM: BOX BOUNDS 
0.000000e+00 4.304126e-01 xlo xhi 
0.000000e+00 4.304126e-01 xlo xhi 
0.000000e+00 8.608251e-01 xlo xhi 
ITEM: ATOMS id type x y z 
0 0 2.463397e-01 3.582339e-01 3.625624e+01 
1 0 3.769273e-01 3.499077e-01 2.290791e+01 
2 0 1.784662e-01 2.796144e-01 -8.283643e+01 
3 0 3.641593e-01 2.925261e-01 9.562655e+01 
4 0 2.160096e-01 6.569069e-03 6.905930e+01 
5 0 4.095401e-01 1.230702e-01 -1.967885e+01 
6 0 2.948912e-01 3.627401e-01 -6.116750e+02 
7 0 3.774625e-01 2.772433e-01 1.772806e-01 
8 0 4.167600e-01 1.928898e-01 -5.374987e+01 
9 0 3.370961e-01 1.006853e-02 6.413664e-01 
10 0 1.031617e-01 9.901730e-03 -2.256964e+01 
11 0 4.174457e-01 1.395117e-01 1.131020e+01 
ITEM: TIMESTEP 
390 
ITEM: NUMBER OF ATOMS 
12 
ITEM: BOX BOUNDS 
0.000000e+00 4.304126e-01 xlo xhi 
0.000000e+00 4.304126e-01 xlo xhi 
0.000000e+00 8.608251e-01 xlo xhi 
ITEM: ATOMS id type x y z 
0 0 3.733211e-01 2.198242e-01 4.166329e+01 
1 0 1.975511e-01 1.136769e-01 2.671581e+01 
2 0 1.990531e-01 1.259815e-01 -9.566352e+01 
3 0 2.787934e-01 1.651649e-01 1.102616e+02 
4 0 1.381495e-01 7.623747e-02 7.893163e+01 
5 0 1.705155e-01 3.860990e-01 -2.265912e+01 
6 0 3.387399e-01 2.356250e-01 -7.178913e+02 
7 0 7.410957e-02 2.202402e-01 1.466808e-01 
8 0 3.001879e-02 2.647247e-01 -6.158904e+01 
9 0 3.448477e-01 3.160164e-02 4.814164e-01 
10 0 1.163214e-01 9.676542e-02 -2.653027e+01 
11 0 3.189599e-01 4.300353e-01 1.358173e+01 
ITEM: TIMESTEP 
420 
ITEM: NUMBER OF ATOMS 
12 
ITEM: BOX BOUNDS 
0.000000e+00 4.304126e-01 xlo xhi 
0.000000e+00 4.304126e-01 xlo xhi 
0.000000e+00 8.608251e-01 xlo xhi 
ITEM: ATOMS id type x y z 
0 0 6.988990e-02 8.141448e-02 4.707034e+01 
1 0 1.817488e-02 3.078586e-01 3.052372e+01 
2 0 2.196401e-01 4.027612e-01 -1.084906e+02 
3 0 1.934276e-01 3.780364e-02 1.248966e+02 
4 0 6.028934e-02 1.459059e-01 8.880395e+01 
5 0 3.619035e-01 2.187152e-01 -2.563940e+01 
6 0 3.825887e-01 1.085100e-01 -8.241076e+02 
7 0 2.011700e-01 1.632254e-01 1.160585e-01 
8 0 7.369012e-02 3.365595e-01 -6.942822e+01 
9 0 3.525985e-01 5.314647e-02 3.214890e-01 
10 0 1.294811e-01 1.836291e-01 -3.049090e+01 
11 0 2.204740e-01 2.901463e-01 1.585326e+01 
ITEM: TIMESTEP 
450 
ITEM: NUMBER OF ATOMS 
12 
ITEM: BOX BOUNDS 
0.000000e+00 4.304126e-01 xlo xhi 
0.000000e+00 4.304126e-01 xlo xhi 
0.000000e+00 8.608251e-01 xlo xhi 
ITEM: ATOMS id type x y z 
0 0 1.968713e-01 3.734173e-01 5.247739e+01 
1 0 2.692112e-01 7.162783e-02 3.433163e+01 
2 0 2.402270e-01 2.491284e-01 -1.213177e+02 
3 0 1.080617e-01 3.408549e-01 1.395316e+02 
4 0 4.128418e-01 2.155743e-01 9.867628e+01 
5 0 1.228789e-01 5.133141e-02 -2.861967e+01 
6 0 4.264374e-01 4.118076e-01 -9.303239e+02 
7 0 4.033864e-01 4.285207e-01 2.653263e-01 
8 0 1.173614e-01 4.083944e-01 -7.726740e+01 
9 0 2.851933e-01 1.827938e-01 2.383849e-02 
10 0 1.426408e-01 2.704928e-01 -3.445152e+01 
11 0 1.219882e-01 1.502573e-01 1.812479e+01 
ITEM: TIMESTEP 
480 
ITEM: NUMBER OF ATOMS 
12 
ITEM: BOX BOUNDS 
0.000000e+00 4.304126e-01 xlo xhi 
0.000000e+00 4.304126e-01 xlo xhi 
0.000000e+00 8.608251e-01 xlo xhi 
ITEM: ATOMS id type x y z 
0 0 3.238526e-01 2.350076e-01 5.788444e+01 
1 0 8.983506e-02 2.658095e-01 3.813953e+01 
2 0 2.608139e-01 9.549550e-02 -1.341448e+02 
3 0 2.269583e-02 2.134937e-01 1.541666e+02 
4 0 3.349817e-01 2.852427e-01 1.085486e+02 
5 0 3.142669e-01 3.143602e-01 -3.159995e+01 
6 0 3.987352e-02 2.846925e-01 -1.036540e+03 
7 0 3.376486e-01 3.816280e-01 -1.956974e+03 
8 0 1.610328e-01 4.981677e-02 -8.510658e+01 
9 0 5.532983e-02 1.942166e-01 4.308283e+01 
10 0 1.558004e-01 3.573565e-01 -3.841215e+01 
11 0 2.350236e-02 1.036835e-02 2.039632e+01 
