ITEM: TIMESTEP 
0 
ITEM: NUMBER OF ATOMS 
432 
ITEM: BOX BOUNDS 
0.000000e+00 1.421191e+00 xlo xhi 
0.000000e+00 1.421191e+00 xlo xhi 
0.000000e+00 2.842382e+00 xlo xhi 
ITEM: ATOMS id type x y z 
0 0 1.184326e-01 1.184326e-01 1.184326e-01 
1 0 1.184326e-01 1.184326e-01 3.552977e-01 
2 0 1.184326e-01 1.184326e-01 5.921629e-01 
3 0 1.184326e-01 1.184326e-01 8.290281e-01 
4 0 1.184326e-01 1.184326e-01 1.065893e+00 
5 0 1.184326e-01 1.184326e-01 1.302758e+00 
6 0 1.184326e-01 1.184326e-01 1.539624e+00 
7 0 1.184326e-01 1.184326e-01 1.776489e+00 
8 0 1.184326e-01 1.184326e-01 2.013354e+00 
9 0 1.184326e-01 1.184326e-01 2.250219e+00 
10 0 1.184326e-01 1.184326e-01 2.487084e+00 
11 0 1.184326e-01 1.184326e-01 2.723949e+00 
12 0 1.184326e-01 3.552977e-01 1.184326e-01 
13 0 1.184326e-01 3.552977e-01 3.552977e-01 
14 0 1.184326e-01 3.552977e-01 5.921629e-01 
15 0 1.184326e-01 3.552977e-01 8.290281e-01 
16 0 1.184326e-01 3.552977e-01 1.065893e+00 
17 0 1.184326e-01 3.552977e-01 1.302758e+00 
18 0 1.184326e-01 3.552977e-01 1.539624e+00 
19 0 1.184326e-01 3.552977e-01 1.776489e+00 
20 0 1.184326e-01 3.552977e-01 2.013354e+00 
21 0 1.184326e-01 3.552977e-01 2.250219e+00 
22 0 1.184326e-01 3.552977e-01 2.487084e+00 
23 0 1.184326e-01 3.552977e-01 2.723949e+00 
24 0 1.184326e-01 5.921629e-01 1.184326e-01 
25 0 1.184326e-01 5.921629e-01 3.552977e-01 
26 0 1.184326e-01 5.921629e-01 5.921629e-01 
27 0 1.184326e-01 5.921629e-01 8.290281e-01 
28 0 1.184326e-01 5.921629e-01 1.065893e+00 
29 0 1.184326e-01 5.921629e-01 1.302758e+00 
30 0 1.184326e-01 5.921629e-01 1.539624e+00 
31 0 1.184326e-01 5.921629e-01 1.776489e+00 
32 0 1.184326e-01 5.921629e-01 2.013354e+00 
33 0 1.184326e-01 5.921629e-01 2.250219e+00 
34 0 1.184326e-01 5.921629e-01 2.487084e+00 
35 0 1.184326e-01 5.921629e-01 2.723949e+00 
36 0 1.184326e-01 8.290281e-01 1.184326e-01 
37 0 1.184326e-01 8.290281e-01 3.552977e-01 
38 0 1.184326e-01 8.290281e-01 5.921629e-01 
39 0 1.184326e-01 8.290281e-01 8.290281e-01 
40 0 1.184326e-01 8.290281e-01 1.065893e+00 
41 0 1.184326e-01 8.290281e-01 1.302758e+00 
42 0 1.184326e-01 8.290281e-01 1.539624e+00 
43 0 1.184326e-01 8.290281e-01 1.776489e+00 
44 0 1.184326e-01 8.290281e-01 2.013354e+00 
45 0 1.184326e-01 8.290281e-01 2.250219e+00 
46 0 1.184326e-01 8.290281e-01 2.487084e+00 
47 0 1.184326e-01 8.290281e-01 2.723949e+00 
48 0 1.184326e-01 1.065893e+00 1.184326e-01 
49 0 1.184326e-01 1.065893e+00 3.552977e-01 
50 0 1.184326e-01 1.065893e+00 5.921629e-01 
51 0 1.184326e-01 1.065893e+00 8.290281e-01 
52 0 1.184326e-01 1.065893e+00 1.065893e+00 
53 0 1.184326e-01 1.065893e+00 1.302758e+00 
54 0 1.184326e-01 1.065893e+00 1.539624e+00 
55 0 1.184326e-01 1.065893e+00 1.776489e+00 
56 0 1.184326e-01 1.065893e+00 2.013354e+00 
57 0 1.184326e-01 1.065893e+00 2.250219e+00 
58 0 1.184326e-01 1.065893e+00 2.487084e+00 
59 0 1.184326e-01 1.065893e+00 2.723949e+00 
60 0 1.184326e-01 1.302758e+00 1.184326e-01 
61 0 1.184326e-01 1.302758e+00 3.552977e-01 
62 0 1.184326e-01 1.302758e+00 5.921629e-01 
63 0 1.184326e-01 1.302758e+00 8.290281e-01 
64 0 1.184326e-01 1.302758e+00 1.065893e+00 
65 0 1.184326e-01 1.302758e+00 1.302758e+00 
66 0 1.184326e-01 1.302758e+00 1.539624e+00 
67 0 1.184326e-01 1.302758e+00 1.776489e+00 
68 0 1.184326e-01 1.302758e+00 2.013354e+00 
69 0 1.184326e-01 1.302758e+00 2.250219e+00 
70 0 1.184326e-01 1.302758e+00 2.487084e+00 
71 0 1.184326e-01 1.302758e+00 2.723949e+00 
72 0 3.552977e-01 1.184326e-01 1.184326e-01 
73 0 3.552977e-01 1.184326e-01 3.552977e-01 
74 0 3.552977e-01 1.184326e-01 5.921629e-01 
75 0 3.552977e-01 1.184326e-01 8.290281e-01 
76 0 3.552977e-01 1.184326e-01 1.065893e+00 
77 0 3.552977e-01 1.184326e-01 1.302758e+00 
78 0 3.552977e-01 1.184326e-01 1.539624e+00 
79 0 3.552977e-01 1.184326e-01 1.776489e+00 
80 0 3.552977e-01 1.184326e-01 2.013354e+00 
81 0 3.552977e-01 1.184326e-01 2.250219e+00 
82 0 3.552977e-01 1.184326e-01 2.487084e+00 
83 0 3.552977e-01 1.184326e-01 2.723949e+00 
84 0 3.552977e-01 3.552977e-01 1.184326e-01 
85 0 3.552977e-01 3.552977e-01 3.552977e-01 
86 0 3.552977e-01 3.552977e-01 5.921629e-01 
87 0 3.552977e-01 3.552977e-01 8.290281e-01 
88 0 3.552977e-01 3.552977e-01 1.065893e+00 
89 0 3.552977e-01 3.552977e-01 1.302758e+00 
90 0 3.552977e-01 3.552977e-01 1.539624e+00 
91 0 3.552977e-01 3.552977e-01 1.776489e+00 
92 0 3.552977e-01 3.552977e-01 2.013354e+00 
93 0 3.552977e-01 3.552977e-01 2.250219e+00 
94 0 3.552977e-01 3.552977e-01 2.487084e+00 
95 0 3.552977e-01 3.552977e-01 2.723949e+00 
96 0 3.552977e-01 5.921629e-01 1.184326e-01 
97 0 3.552977e-01 5.921629e-01 3.552977e-01 
98 0 3.552977e-01 5.921629e-01 5.921629e-01 
99 0 3.552977e-01 5.921629e-01 8.290281e-01 
100 0 3.552977e-01 5.921629e-01 1.065893e+00 
101 0 3.552977e-01 5.921629e-01 1.302758e+00 
102 0 3.552977e-01 5.921629e-01 1.539624e+00 
103 0 3.552977e-01 5.921629e-01 1.776489e+00 
104 0 3.552977e-01 5.921629e-01 2.013354e+00 
105 0 3.552977e-01 5.921629e-01 2.250219e+00 
106 0 3.552977e-01 5.921629e-01 2.487084e+00 
107 0 3.552977e-01 5.921629e-01 2.723949e+00 
108 0 3.552977e-01 8.290281e-01 1.184326e-01 
109 0 3.552977e-01 8.290281e-01 3.552977e-01 
110 0 3.552977e-01 8.290281e-01 5.921629e-01 
111 0 3.552977e-01 8.290281e-01 8.290281e-01 
112 0 3.552977e-01 8.290281e-01 1.065893e+00 
113 0 3.552977e-01 8.290281e-01 1.302758e+00 
114 0 3.552977e-01 8.290281e-01 1.539624e+00 
115 0 3.552977e-01 8.290281e-01 1.776489e+00 
116 0 3.552977e-01 8.290281e-01 2.013354e+00 
117 0 3.552977e-01 8.290281e-01 2.250219e+00 
118 0 3.552977e-01 8.290281e-01 2.487084e+00 
119 0 3.552977e-01 8.290281e-01 2.723949e+00 
120 0 3.552977e-01 1.065893e+00 1.184326e-01 
121 0 3.552977e-01 1.065893e+00 3.552977e-01 
122 0 3.552977e-01 1.065893e+00 5.921629e-01 
123 0 3.552977e-01 1.065893e+00 8.290281e-01 
124 0 3.552977e-01 1.065893e+00 1.065893e+00 
125 0 3.552977e-01 1.065893e+00 1.302758e+00 
126 0 3.552977e-01 1.065893e+00 1.539624e+00 
127 0 3.552977e-01 1.065893e+00 1.776489e+00 
128 0 3.552977e-01 1.065893e+00 2.013354e+00 
129 0 3.552977e-01 1.065893e+00 2.250219e+00 
130 0 3.552977e-01 1.065893e+00 2.487084e+00 
131 0 3.552977e-01 1.065893e+00 2.723949e+00 
132 0 3.552977e-01 1.302758e+00 1.184326e-01 
133 0 3.552977e-01 1.302758e+00 3.552977e-01 
134 0 3.552977e-01 1.302758e+00 5.921629e-01 
135 0 3.552977e-01 1.302758e+00 8.290281e-01 
136 0 3.552977e-01 1.302758e+00 1.065893e+00 
137 0 3.552977e-01 1.302758e+00 1.302758e+00 
138 0 3.552977e-01 1.302758e+00 1.539624e+00 
139 0 3.552977e-01 1.302758e+00 1.776489e+00 
140 0 3.552977e-01 1.302758e+00 2.013354e+00 
141 0 3.552977e-01 1.302758e+00 2.250219e+00 
142 0 3.552977e-01 1.302758e+00 2.487084e+00 
143 0 3.552977e-01 1.302758e+00 2.723949e+00 
144 0 5.921629e-01 1.184326e-01 1.184326e-01 
145 0 5.921629e-01 1.184326e-01 3.552977e-01 
146 0 5.921629e-01 1.184326e-01 5.921629e-01 
147 0 5.921629e-01 1.184326e-01 8.290281e-01 
148 0 5.921629e-01 1.184326e-01 1.065893e+00 
149 0 5.921629e-01 1.184326e-01 1.302758e+00 
150 0 5.921629e-01 1.184326e-01 1.539624e+00 
151 0 5.921629e-01 1.184326e-01 1.776489e+00 
152 0 5.921629e-01 1.184326e-01 2.013354e+00 
153 0 5.921629e-01 1.184326e-01 2.250219e+00 
154 0 5.921629e-01 1.184326e-01 2.487084e+00 
155 0 5.921629e-01 1.184326e-01 2.723949e+00 
156 0 5.921629e-01 3.552977e-01 1.184326e-01 
157 0 5.921629e-01 3.552977e-01 3.552977e-01 
158 0 5.921629e-01 3.552977e-01 5.921629e-01 
159 0 5.921629e-01 3.552977e-01 8.290281e-01 
160 0 5.921629e-01 3.552977e-01 1.065893e+00 
161 0 5.921629e-01 3.552977e-01 1.302758e+00 
162 0 5.921629e-01 3.552977e-01 1.539624e+00 
163 0 5.921629e-01 3.552977e-01 1.776489e+00 
164 0 5.921629e-01 3.552977e-01 2.013354e+00 
165 0 5.921629e-01 3.552977e-01 2.250219e+00 
166 0 5.921629e-01 3.552977e-01 2.487084e+00 
167 0 5.921629e-01 3.552977e-01 2.723949e+00 
168 0 5.921629e-01 5.921629e-01 1.184326e-01 
169 0 5.921629e-01 5.921629e-01 3.552977e-01 
170 0 5.921629e-01 5.921629e-01 5.921629e-01 
171 0 5.921629e-01 5.921629e-01 8.290281e-01 
172 0 5.921629e-01 5.921629e-01 1.065893e+00 
173 0 5.921629e-01 5.921629e-01 1.302758e+00 
174 0 5.921629e-01 5.921629e-01 1.539624e+00 
175 0 5.921629e-01 5.921629e-01 1.776489e+00 
176 0 5.921629e-01 5.921629e-01 2.013354e+00 
177 0 5.921629e-01 5.921629e-01 2.250219e+00 
178 0 5.921629e-01 5.921629e-01 2.487084e+00 
179 0 5.921629e-01 5.921629e-01 2.723949e+00 
180 0 5.921629e-01 8.290281e-01 1.184326e-01 
181 0 5.921629e-01 8.290281e-01 3.552977e-01 
182 0 5.921629e-01 8.290281e-01 5.921629e-01 
183 0 5.921629e-01 8.290281e-01 8.290281e-01 
184 0 5.921629e-01 8.290281e-01 1.065893e+00 
185 0 5.921629e-01 8.290281e-01 1.302758e+00 
186 0 5.921629e-01 8.290281e-01 1.539624e+00 
187 0 5.921629e-01 8.290281e-01 1.776489e+00 
188 0 5.921629e-01 8.290281e-01 2.013354e+00 
189 0 5.921629e-01 8.290281e-01 2.250219e+00 
190 0 5.921629e-01 8.290281e-01 2.487084e+00 
191 0 5.921629e-01 8.290281e-01 2.723949e+00 
192 0 5.921629e-01 1.065893e+00 1.184326e-01 
193 0 5.921629e-01 1.065893e+00 3.552977e-01 
194 0 5.921629e-01 1.065893e+00 5.921629e-01 
195 0 5.921629e-01 1.065893e+00 8.290281e-01 
196 0 5.921629e-01 1.065893e+00 1.065893e+00 
197 0 5.921629e-01 1.065893e+00 1.302758e+00 
198 0 5.921629e-01 1.065893e+00 1.539624e+00 
199 0 5.921629e-01 1.065893e+00 1.776489e+00 
200 0 5.921629e-01 1.065893e+00 2.013354e+00 
201 0 5.921629e-01 1.065893e+00 2.250219e+00 
202 0 5.921629e-01 1.065893e+00 2.487084e+00 
203 0 5.921629e-01 1.065893e+00 2.723949e+00 
204 0 5.921629e-01 1.302758e+00 1.184326e-01 
205 0 5.921629e-01 1.302758e+00 3.552977e-01 
206 0 5.921629e-01 1.302758e+00 5.921629e-01 
207 0 5.921629e-01 1.302758e+00 8.290281e-01 
208 0 5.921629e-01 1.302758e+00 1.065893e+00 
209 0 5.921629e-01 1.302758e+00 1.302758e+00 
210 0 5.921629e-01 1.302758e+00 1.539624e+00 
211 0 5.921629e-01 1.302758e+00 1.776489e+00 
212 0 5.921629e-01 1.302758e+00 2.013354e+00 
213 0 5.921629e-01 1.302758e+00 2.250219e+00 
214 0 5.921629e-01 1.302758e+00 2.487084e+00 
215 0 5.921629e-01 1.302758e+00 2.723949e+00 
216 0 8.290281e-01 1.184326e-01 1.184326e-01 
217 0 8.290281e-01 1.184326e-01 3.552977e-01 
218 0 8.290281e-01 1.184326e-01 5.921629e-01 
219 0 8.290281e-01 1.184326e-01 8.290281e-01 
220 0 8.290281e-01 1.184326e-01 1.065893e+00 
221 0 8.290281e-01 1.184326e-01 1.302758e+00 
222 0 8.290281e-01 1.184326e-01 1.539624e+00 
223 0 8.290281e-01 1.184326e-01 1.776489e+00 
224 0 8.290281e-01 1.184326e-01 2.013354e+00 
225 0 8.290281e-01 1.184326e-01 2.250219e+00 
226 0 8.290281e-01 1.184326e-01 2.487084e+00 
227 0 8.290281e-01 1.184326e-01 2.723949e+00 
228 0 8.290281e-01 3.552977e-01 1.184326e-01 
229 0 8.290281e-01 3.552977e-01 3.552977e-01 
230 0 8.290281e-01 3.552977e-01 5.921629e-01 
231 0 8.290281e-01 3.552977e-01 8.290281e-01 
232 0 8.290281e-01 3.552977e-01 1.065893e+00 
233 0 8.290281e-01 3.552977e-01 1.302758e+00 
234 0 8.290281e-01 3.552977e-01 1.539624e+00 
235 0 8.290281e-01 3.552977e-01 1.776489e+00 
236 0 8.290281e-01 3.552977e-01 2.013354e+00 
237 0 8.290281e-01 3.552977e-01 2.250219e+00 
238 0 8.290281e-01 3.552977e-01 2.487084e+00 
239 0 8.290281e-01 3.552977e-01 2.723949e+00 
240 0 8.290281e-01 5.921629e-01 1.184326e-01 
241 0 8.290281e-01 5.921629e-01 3.552977e-01 
242 0 8.290281e-01 5.921629e-01 5.921629e-01 
243 0 8.290281e-01 5.921629e-01 8.290281e-01 
244 0 8.290281e-01 5.921629e-01 1.065893e+00 
245 0 8.290281e-01 5.921629e-01 1.302758e+00 
246 0 8.290281e-01 5.921629e-01 1.539624e+00 
247 0 8.290281e-01 5.921629e-01 1.776489e+00 
248 0 8.290281e-01 5.921629e-01 2.013354e+00 
249 0 8.290281e-01 5.921629e-01 2.250219e+00 
250 0 8.290281e-01 5.921629e-01 2.487084e+00 
251 0 8.290281e-01 5.921629e-01 2.723949e+00 
252 0 8.290281e-01 8.290281e-01 1.184326e-01 
253 0 8.290281e-01 8.290281e-01 3.552977e-01 
254 0 8.290281e-01 8.290281e-01 5.921629e-01 
255 0 8.290281e-01 8.290281e-01 8.290281e-01 
256 0 8.290281e-01 8.290281e-01 1.065893e+00 
257 0 8.290281e-01 8.290281e-01 1.302758e+00 
258 0 8.290281e-01 8.290281e-01 1.539624e+00 
259 0 8.290281e-01 8.290281e-01 1.776489e+00 
260 0 8.290281e-01 8.290281e-01 2.013354e+00 
261 0 8.290281e-01 8.290281e-01 2.250219e+00 
262 0 8.290281e-01 8.290281e-01 2.487084e+00 
263 0 8.290281e-01 8.290281e-01 2.723949e+00 
264 0 8.290281e-01 1.065893e+00 1.184326e-01 
265 0 8.290281e-01 1.065893e+00 3.552977e-01 
266 0 8.290281e-01 1.065893e+00 5.921629e-01 
267 0 8.290281e-01 1.065893e+00 8.290281e-01 
268 0 8.290281e-01 1.065893e+00 1.065893e+00 
269 0 8.290281e-01 1.065893e+00 1.302758e+00 
270 0 8.290281e-01 1.065893e+00 1.539624e+00 
271 0 8.290281e-01 1.065893e+00 1.776489e+00 
272 0 8.290281e-01 1.065893e+00 2.013354e+00 
273 0 8.290281e-01 1.065893e+00 2.250219e+00 
274 0 8.290281e-01 1.065893e+00 2.487084e+00 
275 0 8.290281e-01 1.065893e+00 2.723949e+00 
276 0 8.290281e-01 1.302758e+00 1.184326e-01 
277 0 8.290281e-01 1.302758e+00 3.552977e-01 
278 0 8.290281e-01 1.302758e+00 5.921629e-01 
279 0 8.290281e-01 1.302758e+00 8.290281e-01 
280 0 8.290281e-01 1.302758e+00 1.065893e+00 
281 0 8.290281e-01 1.302758e+00 1.302758e+00 
282 0 8.290281e-01 1.302758e+00 1.539624e+00 
283 0 8.290281e-01 1.302758e+00 1.776489e+00 
284 0 8.290281e-01 1.302758e+00 2.013354e+00 
285 0 8.290281e-01 1.302758e+00 2.250219e+00 
286 0 8.290281e-01 1.302758e+00 2.487084e+00 
287 0 8.290281e-01 1.302758e+00 2.723949e+00 
288 0 1.065893e+00 1.184326e-01 1.184326e-01 
289 0 1.065893e+00 1.184326e-01 3.552977e-01 
290 0 1.065893e+00 1.184326e-01 5.921629e-01 
291 0 1.065893e+00 1.184326e-01 8.290281e-01 
292 0 1.065893e+00 1.184326e-01 1.065893e+00 
293 0 1.065893e+00 1.184326e-01 1.302758e+00 
294 0 1.065893e+00 1.184326e-01 1.539624e+00 
295 0 1.065893e+00 1.184326e-01 1.776489e+00 
296 0 1.065893e+00 1.184326e-01 2.013354e+00 
297 0 1.065893e+00 1.184326e-01 2.250219e+00 
298 0 1.065893e+00 1.184326e-01 2.487084e+00 
299 0 1.065893e+00 1.184326e-01 2.723949e+00 
300 0 1.065893e+00 3.552977e-01 1.184326e-01 
301 0 1.065893e+00 3.552977e-01 3.552977e-01 
302 0 1.065893e+00 3.552977e-01 5.921629e-01 
303 0 1.065893e+00 3.552977e-01 8.290281e-01 
304 0 1.065893e+00 3.552977e-01 1.065893e+00 
305 0 1.065893e+00 3.552977e-01 1.302758e+00 
306 0 1.065893e+00 3.552977e-01 1.539624e+00 
307 0 1.065893e+00 3.552977e-01 1.776489e+00 
308 0 1.065893e+00 3.552977e-01 2.013354e+00 
309 0 1.065893e+00 3.552977e-01 2.250219e+00 
310 0 1.065893e+00 3.552977e-01 2.487084e+00 
311 0 1.065893e+00 3.552977e-01 2.723949e+00 
312 0 1.065893e+00 5.921629e-01 1.184326e-01 
313 0 1.065893e+00 5.921629e-01 3.552977e-01 
314 0 1.065893e+00 5.921629e-01 5.921629e-01 
315 0 1.065893e+00 5.921629e-01 8.290281e-01 
316 0 1.065893e+00 5.921629e-01 1.065893e+00 
317 0 1.065893e+00 5.921629e-01 1.302758e+00 
318 0 1.065893e+00 5.921629e-01 1.539624e+00 
319 0 1.065893e+00 5.921629e-01 1.776489e+00 
320 0 1.065893e+00 5.921629e-01 2.013354e+00 
321 0 1.065893e+00 5.921629e-01 2.250219e+00 
322 0 1.065893e+00 5.921629e-01 2.487084e+00 
323 0 1.065893e+00 5.921629e-01 2.723949e+00 
324 0 1.065893e+00 8.290281e-01 1.184326e-01 
325 0 1.065893e+00 8.290281e-01 3.552977e-01 
326 0 1.065893e+00 8.290281e-01 5.921629e-01 
327 0 1.065893e+00 8.290281e-01 8.290281e-01 
328 0 1.065893e+00 8.290281e-01 1.065893e+00 
329 0 1.065893e+00 8.290281e-01 1.302758e+00 
330 0 1.065893e+00 8.290281e-01 1.539624e+00 
331 0 1.065893e+00 8.290281e-01 1.776489e+00 
332 0 1.065893e+00 8.290281e-01 2.013354e+00 
333 0 1.065893e+00 8.290281e-01 2.250219e+00 
334 0 1.065893e+00 8.290281e-01 2.487084e+00 
335 0 1.065893e+00 8.290281e-01 2.723949e+00 
336 0 1.065893e+00 1.065893e+00 1.184326e-01 
337 0 1.065893e+00 1.065893e+00 3.552977e-01 
338 0 1.065893e+00 1.065893e+00 5.921629e-01 
339 0 1.065893e+00 1.065893e+00 8.290281e-01 
340 0 1.065893e+00 1.065893e+00 1.065893e+00 
341 0 1.065893e+00 1.065893e+00 1.302758e+00 
342 0 1.065893e+00 1.065893e+00 1.539624e+00 
343 0 1.065893e+00 1.065893e+00 1.776489e+00 
344 0 1.065893e+00 1.065893e+00 2.013354e+00 
345 0 1.065893e+00 1.065893e+00 2.250219e+00 
346 0 1.065893e+00 1.065893e+00 2.487084e+00 
347 0 1.065893e+00 1.065893e+00 2.723949e+00 
348 0 1.065893e+00 1.302758e+00 1.184326e-01 
349 0 1.065893e+00 1.302758e+00 3.552977e-01 
350 0 1.065893e+00 1.302758e+00 5.921629e-01 
351 0 1.065893e+00 1.302758e+00 8.290281e-01 
352 0 1.065893e+00 1.302758e+00 1.065893e+00 
353 0 1.065893e+00 1.302758e+00 1.302758e+00 
354 0 1.065893e+00 1.302758e+00 1.539624e+00 
355 0 1.065893e+00 1.302758e+00 1.776489e+00 
356 0 1.065893e+00 1.302758e+00 2.013354e+00 
357 0 1.065893e+00 1.302758e+00 2.250219e+00 
358 0 1.065893e+00 1.302758e+00 2.487084e+00 
359 0 1.065893e+00 1.302758e+00 2.723949e+00 
360 0 1.302758e+00 1.184326e-01 1.184326e-01 
361 0 1.302758e+00 1.184326e-01 3.552977e-01 
362 0 1.302758e+00 1.184326e-01 5.921629e-01 
363 0 1.302758e+00 1.184326e-01 8.290281e-01 
364 0 1.302758e+00 1.184326e-01 1.065893e+00 
365 0 1.302758e+00 1.184326e-01 1.302758e+00 
366 0 1.302758e+00 1.184326e-01 1.539624e+00 
367 0 1.302758e+00 1.184326e-01 1.776489e+00 
368 0 1.302758e+00 1.184326e-01 2.013354e+00 
369 0 1.302758e+00 1.184326e-01 2.250219e+00 
370 0 1.302758e+00 1.184326e-01 2.487084e+00 
371 0 1.302758e+00 1.184326e-01 2.723949e+00 
372 0 1.302758e+00 3.552977e-01 1.184326e-01 
373 0 1.302758e+00 3.552977e-01 3.552977e-01 
374 0 1.302758e+00 3.552977e-01 5.921629e-01 
375 0 1.302758e+00 3.552977e-01 8.290281e-01 
376 0 1.302758e+00 3.552977e-01 1.065893e+00 
377 0 1.302758e+00 3.552977e-01 1.302758e+00 
378 0 1.302758e+00 3.552977e-01 1.539624e+00 
379 0 1.302758e+00 3.552977e-01 1.776489e+00 
380 0 1.302758e+00 3.552977e-01 2.013354e+00 
381 0 1.302758e+00 3.552977e-01 2.250219e+00 
382 0 1.302758e+00 3.552977e-01 2.487084e+00 
383 0 1.302758e+00 3.552977e-01 2.723949e+00 
384 0 1.302758e+00 5.921629e-01 1.184326e-01 
385 0 1.302758e+00 5.921629e-01 3.552977e-01 
386 0 1.302758e+00 5.921629e-01 5.921629e-01 
387 0 1.302758e+00 5.921629e-01 8.290281e-01 
388 0 1.302758e+00 5.921629e-01 1.065893e+00 
389 0 1.302758e+00 5.921629e-01 1.302758e+00 
390 0 1.302758e+00 5.921629e-01 1.539624e+00 
391 0 1.302758e+00 5.921629e-01 1.776489e+00 
392 0 1.302758e+00 5.921629e-01 2.013354e+00 
393 0 1.302758e+00 5.921629e-01 2.250219e+00 
394 0 1.302758e+00 5.921629e-01 2.487084e+00 
395 0 1.302758e+00 5.921629e-01 2.723949e+00 
396 0 1.302758e+00 8.290281e-01 1.184326e-01 
397 0 1.302758e+00 8.290281e-01 3.552977e-01 
398 0 1.302758e+00 8.290281e-01 5.921629e-01 
399 0 1.302758e+00 8.290281e-01 8.290281e-01 
400 0 1.302758e+00 8.290281e-01 1.065893e+00 
401 0 1.302758e+00 8.290281e-01 1.302758e+00 
402 0 1.302758e+00 8.290281e-01 1.539624e+00 
403 0 1.302758e+00 8.290281e-01 1.776489e+00 
404 0 1.302758e+00 8.290281e-01 2.013354e+00 
405 0 1.302758e+00 8.290281e-01 2.250219e+00 
406 0 1.302758e+00 8.290281e-01 2.487084e+00 
407 0 1.302758e+00 8.290281e-01 2.723949e+00 
408 0 1.302758e+00 1.065893e+00 1.184326e-01 
409 0 1.302758e+00 1.065893e+00 3.552977e-01 
410 0 1.302758e+00 1.065893e+00 5.921629e-01 
411 0 1.302758e+00 1.065893e+00 8.290281e-01 
412 0 1.302758e+00 1.065893e+00 1.065893e+00 
413 0 1.302758e+00 1.065893e+00 1.302758e+00 
414 0 1.302758e+00 1.065893e+00 1.539624e+00 
415 0 1.302758e+00 1.065893e+00 1.776489e+00 
416 0 1.302758e+00 1.065893e+00 2.013354e+00 
417 0 1.302758e+00 1.065893e+00 2.250219e+00 
418 0 1.302758e+00 1.065893e+00 2.487084e+00 
419 0 1.302758e+00 1.065893e+00 2.723949e+00 
420 0 1.302758e+00 1.302758e+00 1.184326e-01 
421 0 1.302758e+00 1.302758e+00 3.552977e-01 
422 0 1.302758e+00 1.302758e+00 5.921629e-01 
423 0 1.302758e+00 1.302758e+00 8.290281e-01 
424 0 1.302758e+00 1.302758e+00 1.065893e+00 
425 0 1.302758e+00 1.302758e+00 1.302758e+00 
426 0 1.302758e+00 1.302758e+00 1.539624e+00 
427 0 1.302758e+00 1.302758e+00 1.776489e+00 
428 0 1.302758e+00 1.302758e+00 2.013354e+00 
429 0 1.302758e+00 1.302758e+00 2.250219e+00 
430 0 1.302758e+00 1.302758e+00 2.487084e+00 
431 0 1.302758e+00 1.302758e+00 2.723949e+00 
ITEM: TIMESTEP 
0 
ITEM: NUMBER OF ATOMS 
432 
ITEM: BOX BOUNDS 
0.000000e+00 1.421191e+00 xlo xhi 
0.000000e+00 1.421191e+00 xlo xhi 
0.000000e+00 2.842382e+00 xlo xhi 
ITEM: ATOMS id type x y z 
0 0 1.184074e-01 1.184544e-01 1.184080e-01 
1 0 1.184074e-01 1.184043e-01 3.552731e-01 
2 0 1.184074e-01 1.184043e-01 5.921884e-01 
3 0 1.184074e-01 1.184043e-01 8.290536e-01 
4 0 1.184074e-01 1.184544e-01 1.065919e+00 
5 0 1.184074e-01 1.184544e-01 1.302784e+00 
6 0 1.184575e-01 1.184043e-01 1.184080e-01 
7 0 1.184575e-01 1.184544e-01 3.552731e-01 
8 0 1.184074e-01 1.184043e-01 5.921884e-01 
9 0 1.184575e-01 1.184544e-01 8.290035e-01 
10 0 1.184074e-01 1.184544e-01 1.065919e+00 
11 0 1.184575e-01 1.184544e-01 1.302734e+00 
12 0 1.184074e-01 3.553195e-01 1.184581e-01 
13 0 1.184575e-01 3.553195e-01 3.552731e-01 
14 0 1.184575e-01 3.553195e-01 5.921383e-01 
15 0 1.184575e-01 3.552694e-01 8.290536e-01 
16 0 1.184575e-01 3.552694e-01 1.065919e+00 
17 0 1.184074e-01 3.553195e-01 1.302784e+00 
18 0 1.184074e-01 3.552694e-01 1.184080e-01 
19 0 1.184074e-01 3.552694e-01 3.552731e-01 
20 0 1.184074e-01 3.552694e-01 5.921884e-01 
21 0 1.184074e-01 3.552694e-01 8.290536e-01 
22 0 1.184575e-01 3.553195e-01 1.065869e+00 
23 0 1.184575e-01 3.552694e-01 1.302784e+00 
24 0 1.184575e-01 5.921847e-01 1.184080e-01 
25 0 1.184575e-01 5.921346e-01 3.552731e-01 
26 0 1.184575e-01 5.921346e-01 5.921884e-01 
27 0 1.184074e-01 5.921847e-01 8.290035e-01 
28 0 1.184575e-01 5.921346e-01 1.065869e+00 
29 0 1.184074e-01 5.921346e-01 1.302784e+00 
30 0 1.184575e-01 5.921346e-01 1.184581e-01 
31 0 1.184575e-01 5.921847e-01 3.553233e-01 
32 0 1.184074e-01 5.921847e-01 5.921383e-01 
33 0 1.184575e-01 5.921847e-01 8.290035e-01 
34 0 1.184074e-01 5.921847e-01 1.065919e+00 
35 0 1.184074e-01 5.921346e-01 1.302734e+00 
36 0 1.184575e-01 8.290499e-01 1.184581e-01 
37 0 1.184575e-01 8.290499e-01 3.552731e-01 
38 0 1.184074e-01 8.290499e-01 5.921383e-01 
39 0 1.184074e-01 8.290499e-01 8.290035e-01 
40 0 1.184074e-01 8.290499e-01 1.065869e+00 
41 0 1.184575e-01 8.290499e-01 1.302734e+00 
42 0 1.184575e-01 8.290499e-01 1.184080e-01 
43 0 1.184575e-01 8.290499e-01 3.552731e-01 
44 0 1.184575e-01 8.290499e-01 5.921383e-01 
45 0 1.184074e-01 8.290499e-01 8.290035e-01 
46 0 1.184575e-01 8.289998e-01 1.065919e+00 
47 0 1.184575e-01 8.290499e-01 1.302784e+00 
48 0 1.184575e-01 1.065865e+00 1.184080e-01 
49 0 1.184074e-01 1.065915e+00 3.552731e-01 
50 0 1.184575e-01 1.065915e+00 5.921383e-01 
51 0 1.184074e-01 1.065915e+00 8.290536e-01 
52 0 1.184575e-01 1.065865e+00 1.065919e+00 
53 0 1.184575e-01 1.065915e+00 1.302784e+00 
54 0 1.184575e-01 1.065865e+00 1.184581e-01 
55 0 1.184575e-01 1.065915e+00 3.552731e-01 
56 0 1.184074e-01 1.065915e+00 5.921383e-01 
57 0 1.184575e-01 1.065915e+00 8.290035e-01 
58 0 1.184575e-01 1.065915e+00 1.065869e+00 
59 0 1.184575e-01 1.065865e+00 1.302734e+00 
60 0 1.184575e-01 1.302730e+00 1.184080e-01 
61 0 1.184074e-01 1.302780e+00 3.553233e-01 
62 0 1.184074e-01 1.302730e+00 5.921884e-01 
63 0 1.184074e-01 1.302780e+00 8.290536e-01 
64 0 1.184575e-01 1.302780e+00 1.065869e+00 
65 0 1.184074e-01 1.302780e+00 1.302784e+00 
66 0 1.184074e-01 1.302780e+00 1.184581e-01 
67 0 1.184575e-01 1.302730e+00 3.553233e-01 
68 0 1.184074e-01 1.302730e+00 5.921884e-01 
69 0 1.184575e-01 1.302780e+00 8.290035e-01 
70 0 1.184074e-01 1.302730e+00 1.065919e+00 
71 0 1.184575e-01 1.302730e+00 1.302784e+00 
72 0 3.552726e-01 1.184544e-01 1.184581e-01 
73 0 3.553227e-01 1.184544e-01 3.553233e-01 
74 0 3.553227e-01 1.184544e-01 5.921884e-01 
75 0 3.553227e-01 1.184544e-01 8.290536e-01 
76 0 3.553227e-01 1.184544e-01 1.065919e+00 
77 0 3.552726e-01 1.184043e-01 1.302734e+00 
78 0 3.552726e-01 1.184043e-01 1.184581e-01 
79 0 3.552726e-01 1.184043e-01 3.553233e-01 
80 0 3.553227e-01 1.184043e-01 5.921884e-01 
81 0 3.553227e-01 1.184544e-01 8.290536e-01 
82 0 3.552726e-01 1.184043e-01 1.065919e+00 
83 0 3.553227e-01 1.184544e-01 1.302734e+00 
84 0 3.552726e-01 3.552694e-01 1.184581e-01 
85 0 3.553227e-01 3.553195e-01 3.553233e-01 
86 0 3.553227e-01 3.553195e-01 5.921383e-01 
87 0 3.552726e-01 3.553195e-01 8.290035e-01 
88 0 3.553227e-01 3.553195e-01 1.065869e+00 
89 0 3.553227e-01 3.553195e-01 1.302784e+00 
90 0 3.553227e-01 3.552694e-01 1.184080e-01 
91 0 3.552726e-01 3.553195e-01 3.553233e-01 
92 0 3.552726e-01 3.552694e-01 5.921383e-01 
93 0 3.553227e-01 3.553195e-01 8.290536e-01 
94 0 3.552726e-01 3.552694e-01 1.065869e+00 
95 0 3.552726e-01 3.553195e-01 1.302784e+00 
96 0 3.553227e-01 5.921346e-01 1.184581e-01 
97 0 3.552726e-01 5.921346e-01 3.552731e-01 
98 0 3.553227e-01 5.921847e-01 5.921383e-01 
99 0 3.552726e-01 5.921847e-01 8.290536e-01 
100 0 3.553227e-01 5.921346e-01 1.065919e+00 
101 0 3.552726e-01 5.921847e-01 1.302784e+00 
102 0 3.553227e-01 5.921346e-01 1.184080e-01 
103 0 3.552726e-01 5.921346e-01 3.552731e-01 
104 0 3.553227e-01 5.921847e-01 5.921884e-01 
105 0 3.552726e-01 5.921346e-01 8.290536e-01 
106 0 3.553227e-01 5.921346e-01 1.065869e+00 
107 0 3.552726e-01 5.921847e-01 1.302734e+00 
108 0 3.553227e-01 8.289998e-01 1.184581e-01 
109 0 3.552726e-01 8.289998e-01 3.552731e-01 
110 0 3.553227e-01 8.290499e-01 5.921884e-01 
111 0 3.553227e-01 8.290499e-01 8.290536e-01 
112 0 3.553227e-01 8.290499e-01 1.065869e+00 
113 0 3.553227e-01 8.290499e-01 1.302784e+00 
114 0 3.552726e-01 8.290499e-01 1.184581e-01 
115 0 3.552726e-01 8.290499e-01 3.552731e-01 
116 0 3.552726e-01 8.289998e-01 5.921383e-01 
117 0 3.553227e-01 8.290499e-01 8.290035e-01 
118 0 3.553227e-01 8.289998e-01 1.065919e+00 
119 0 3.553227e-01 8.289998e-01 1.302734e+00 
120 0 3.552726e-01 1.065915e+00 1.184581e-01 
121 0 3.552726e-01 1.065915e+00 3.553233e-01 
122 0 3.553227e-01 1.065915e+00 5.921383e-01 
123 0 3.553227e-01 1.065915e+00 8.290035e-01 
124 0 3.553227e-01 1.065865e+00 1.065919e+00 
125 0 3.553227e-01 1.065915e+00 1.302784e+00 
126 0 3.552726e-01 1.065915e+00 1.184080e-01 
127 0 3.553227e-01 1.065865e+00 3.553233e-01 
128 0 3.553227e-01 1.065865e+00 5.921383e-01 
129 0 3.552726e-01 1.065865e+00 8.290035e-01 
130 0 3.552726e-01 1.065865e+00 1.065919e+00 
131 0 3.552726e-01 1.065915e+00 1.302734e+00 
132 0 3.553227e-01 1.302730e+00 1.184581e-01 
133 0 3.553227e-01 1.302730e+00 3.552731e-01 
134 0 3.552726e-01 1.302780e+00 5.921383e-01 
135 0 3.552726e-01 1.302780e+00 8.290035e-01 
136 0 3.553227e-01 1.302730e+00 1.065919e+00 
137 0 3.553227e-01 1.302780e+00 1.302784e+00 
138 0 3.553227e-01 1.302780e+00 1.184080e-01 
139 0 3.553227e-01 1.302730e+00 3.553233e-01 
140 0 3.552726e-01 1.302780e+00 5.921383e-01 
141 0 3.553227e-01 1.302780e+00 8.290536e-01 
142 0 3.552726e-01 1.302780e+00 1.065869e+00 
143 0 3.552726e-01 1.302730e+00 1.302784e+00 
144 0 5.921377e-01 1.184544e-01 1.184080e-01 
145 0 5.921878e-01 1.184544e-01 3.553233e-01 
146 0 5.921377e-01 1.184544e-01 5.921884e-01 
147 0 5.921878e-01 1.184043e-01 8.290035e-01 
148 0 5.921377e-01 1.184544e-01 1.065869e+00 
149 0 5.921377e-01 1.184043e-01 1.302784e+00 
150 0 5.921878e-01 1.184544e-01 1.184080e-01 
151 0 5.921878e-01 1.184544e-01 3.552731e-01 
152 0 5.921878e-01 1.184043e-01 5.921884e-01 
153 0 5.921377e-01 1.184544e-01 8.290536e-01 
154 0 5.921878e-01 1.184544e-01 1.065869e+00 
155 0 5.921377e-01 1.184043e-01 1.302734e+00 
156 0 5.921878e-01 3.553195e-01 1.184080e-01 
157 0 5.921377e-01 3.553195e-01 3.552731e-01 
158 0 5.921377e-01 3.553195e-01 5.921884e-01 
159 0 5.921878e-01 3.553195e-01 8.290536e-01 
160 0 5.921878e-01 3.553195e-01 1.065919e+00 
161 0 5.921377e-01 3.552694e-01 1.302784e+00 
162 0 5.921377e-01 3.553195e-01 1.184080e-01 
163 0 5.921377e-01 3.552694e-01 3.553233e-01 
164 0 5.921878e-01 3.553195e-01 5.921383e-01 
165 0 5.921377e-01 3.552694e-01 8.290536e-01 
166 0 5.921878e-01 3.553195e-01 1.065869e+00 
167 0 5.921878e-01 3.553195e-01 1.302734e+00 
168 0 5.921878e-01 5.921847e-01 1.184581e-01 
169 0 5.921878e-01 5.921346e-01 3.553233e-01 
170 0 5.921878e-01 5.921847e-01 5.921383e-01 
171 0 5.921878e-01 5.921847e-01 8.290035e-01 
172 0 5.921878e-01 5.921847e-01 1.065919e+00 
173 0 5.921377e-01 5.921847e-01 1.302734e+00 
174 0 5.921878e-01 5.921847e-01 1.184080e-01 
175 0 5.921878e-01 5.921346e-01 3.552731e-01 
176 0 5.921377e-01 5.921346e-01 5.921884e-01 
177 0 5.921878e-01 5.921847e-01 8.290035e-01 
178 0 5.921878e-01 5.921847e-01 1.065869e+00 
179 0 5.921377e-01 5.921346e-01 1.302734e+00 
180 0 5.921377e-01 8.289998e-01 1.184581e-01 
181 0 5.921377e-01 8.289998e-01 3.552731e-01 
182 0 5.921878e-01 8.289998e-01 5.921884e-01 
183 0 5.921878e-01 8.290499e-01 8.290536e-01 
184 0 5.921878e-01 8.290499e-01 1.065869e+00 
185 0 5.921377e-01 8.290499e-01 1.302784e+00 
186 0 5.921878e-01 8.289998e-01 1.184080e-01 
187 0 5.921878e-01 8.290499e-01 3.553233e-01 
188 0 5.921377e-01 8.289998e-01 5.921884e-01 
189 0 5.921377e-01 8.289998e-01 8.290536e-01 
190 0 5.921377e-01 8.290499e-01 1.065869e+00 
191 0 5.921377e-01 8.290499e-01 1.302784e+00 
192 0 5.921377e-01 1.065915e+00 1.184581e-01 
193 0 5.921377e-01 1.065915e+00 3.552731e-01 
194 0 5.921377e-01 1.065865e+00 5.921383e-01 
195 0 5.921377e-01 1.065915e+00 8.290035e-01 
196 0 5.921878e-01 1.065865e+00 1.065919e+00 
197 0 5.921377e-01 1.065865e+00 1.302734e+00 
198 0 5.921878e-01 1.065865e+00 1.184581e-01 
199 0 5.921878e-01 1.065865e+00 3.552731e-01 
200 0 5.921878e-01 1.065915e+00 5.921884e-01 
201 0 5.921878e-01 1.065865e+00 8.290536e-01 
202 0 5.921377e-01 1.065865e+00 1.065919e+00 
203 0 5.921878e-01 1.065865e+00 1.302734e+00 
204 0 5.921878e-01 1.302780e+00 1.184581e-01 
205 0 5.921878e-01 1.302730e+00 3.552731e-01 
206 0 5.921878e-01 1.302780e+00 5.921884e-01 
207 0 5.921377e-01 1.302780e+00 8.290536e-01 
208 0 5.921377e-01 1.302730e+00 1.065919e+00 
209 0 5.921878e-01 1.302730e+00 1.302784e+00 
210 0 5.921377e-01 1.302780e+00 1.184080e-01 
211 0 5.921878e-01 1.302730e+00 3.552731e-01 
212 0 5.921377e-01 1.302730e+00 5.921383e-01 
213 0 5.921878e-01 1.302780e+00 8.290035e-01 
214 0 5.921377e-01 1.302780e+00 1.065869e+00 
215 0 5.921878e-01 1.302730e+00 1.302734e+00 