ITEM: TIMESTEP 
0 
ITEM: NUMBER OF ATOMS 
12 
ITEM: BOX BOUNDS 
0.000000e+00 4.304126e-01 xlo xhi 
0.000000e+00 4.304126e-01 xlo xhi 
0.000000e+00 8.608251e-01 xlo xhi 
ITEM: ATOMS id type x y z 
0 0 1.316796e-01 2.621251e-01 6.130890e+01 
1 0 1.627422e-01 2.740142e-01 4.055121e+01 
2 0 1.303814e-01 1.254177e-02 -1.422686e+02 
3 0 1.121016e-01 2.763024e-01 1.634355e+02 
4 0 3.000174e-01 2.289364e-01 1.148011e+02 
5 0 3.924380e-01 3.661684e-01 -3.348746e+01 
6 0 6.764437e-02 4.050455e-01 -1.103811e+03 
7 0 1.381967e-01 1.080288e-01 -4.023560e+03 
8 0 5.956751e-02 3.792385e-02 -9.007139e+01 
9 0 6.756755e-02 1.493906e-02 7.035352e+01 
10 0 2.502174e-01 9.673429e-02 -4.092055e+01 
11 0 3.915405e-01 3.521846e-01 2.183496e+01 
ITEM: TIMESTEP 
30 
ITEM: NUMBER OF ATOMS 
12 
ITEM: BOX BOUNDS 
0.000000e+00 4.304126e-01 xlo xhi 
0.000000e+00 4.304126e-01 xlo xhi 
0.000000e+00 8.608251e-01 xlo xhi 
ITEM: ATOMS id type x y z 
0 0 2.586610e-01 1.237164e-01 6.671595e+01 
1 0 4.137786e-01 3.778283e-02 4.435911e+01 
2 0 1.509684e-01 2.893215e-01 -1.550957e+02 
3 0 2.673576e-02 1.489412e-01 1.780705e+02 
4 0 2.221572e-01 2.986048e-01 1.246734e+02 
5 0 1.534135e-01 1.987846e-01 -3.646774e+01 
6 0 1.114931e-01 2.779305e-01 -1.210027e+03 
7 0 7.245884e-02 6.113606e-02 -7.286592e+03 
8 0 1.032388e-01 1.097587e-01 -9.791056e+01 
9 0 2.681165e-01 2.636137e-02 1.134125e+02 
10 0 2.633771e-01 1.835980e-01 -4.488118e+01 
11 0 2.930547e-01 2.122956e-01 2.410649e+01 
ITEM: TIMESTEP 
60 
ITEM: NUMBER OF ATOMS 
12 
ITEM: BOX BOUNDS 
0.000000e+00 4.304126e-01 xlo xhi 
0.000000e+00 4.304126e-01 xlo xhi 
0.000000e+00 8.608251e-01 xlo xhi 
ITEM: ATOMS id type x y z 
0 0 3.856425e-01 4.157203e-01 7.212300e+01 
1 0 2.344024e-01 2.319640e-01 4.816702e+01 
2 0 1.715553e-01 1.356886e-01 -1.679228e+02 
3 0 3.717824e-01 2.157990e-02 1.927055e+02 
4 0 1.442986e-01 3.682747e-01 1.345457e+02 
5 0 3.448015e-01 3.140083e-02 -3.944801e+01 
6 0 1.553418e-01 1.508155e-01 -1.316243e+03 
7 0 6.721007e-03 1.424332e-02 -1.054962e+04 
8 0 1.469102e-01 1.815936e-01 -1.057497e+02 
9 0 3.825146e-02 3.778218e-02 1.564715e+02 
10 0 2.765368e-01 2.704617e-01 -4.884181e+01 
11 0 1.945688e-01 7.240669e-02 2.637802e+01 
ITEM: TIMESTEP 
90 
ITEM: NUMBER OF ATOMS 
12 
ITEM: BOX BOUNDS 
0.000000e+00 4.304126e-01 xlo xhi 
0.000000e+00 4.304126e-01 xlo xhi 
0.000000e+00 8.608251e-01 xlo xhi 
ITEM: ATOMS id type x y z 
0 0 8.221142e-02 2.773116e-01 7.753005e+01 
1 0 5.502624e-02 4.261452e-01 5.197493e+01 
2 0 1.921422e-01 4.124683e-01 -1.807499e+02 
3 0 2.864166e-01 3.246312e-01 2.073405e+02 
4 0 6.644077e-02 7.532828e-03 1.444181e+02 
5 0 1.057769e-01 2.944296e-01 -4.242829e+01 
6 0 1.991905e-01 2.370047e-02 -1.422459e+03 
7 0 3.713957e-01 3.977631e-01 -1.381265e+04 
8 0 1.905815e-01 2.534285e-01 -1.135889e+02 
9 0 2.387982e-01 4.920223e-02 1.995305e+02 
10 0 2.896965e-01 3.573254e-01 -5.280244e+01 
11 0 9.608295e-02 3.629303e-01 2.864954e+01 
ITEM: TIMESTEP 
120 
ITEM: NUMBER OF ATOMS 
12 
ITEM: BOX BOUNDS 
0.000000e+00 4.304126e-01 xlo xhi 
0.000000e+00 4.304126e-01 xlo xhi 
0.000000e+00 8.608251e-01 xlo xhi 
ITEM: ATOMS id type x y z 
0 0 2.091929e-01 1.389030e-01 8.293710e+01 
1 0 3.060626e-01 1.899138e-01 5.578284e+01 
2 0 2.127291e-01 2.588354e-01 -1.935770e+02 
3 0 2.010488e-01 1.972687e-01 2.219755e+02 
4 0 4.189955e-01 7.720348e-02 1.542904e+02 
5 0 2.971649e-01 1.270458e-01 -4.540857e+01 
6 0 2.430392e-01 3.269980e-01 -1.528676e+03 
7 0 3.056579e-01 3.508704e-01 -1.707569e+04 
8 0 2.342528e-01 3.252634e-01 -1.214281e+02 
9 0 8.934309e-03 6.062355e-02 2.425895e+02 
10 0 3.028562e-01 1.377649e-02 -5.676307e+01 
11 0 4.280096e-01 2.230414e-01 3.092107e+01 
ITEM: TIMESTEP 
150 
ITEM: NUMBER OF ATOMS 
12 
ITEM: BOX BOUNDS 
0.000000e+00 4.304126e-01 xlo xhi 
0.000000e+00 4.304126e-01 xlo xhi 
0.000000e+00 8.608251e-01 xlo xhi 
ITEM: ATOMS id type x y z 
0 0 3.361744e-01 4.942812e-04 8.834415e+01 
1 0 1.266864e-01 3.840949e-01 5.959074e+01 
2 0 2.333161e-01 1.052025e-01 -2.064041e+02 
3 0 1.156803e-01 6.990570e-02 2.366106e+02 
4 0 3.411376e-01 1.468741e-01 1.641627e+02 
5 0 5.814032e-02 3.900746e-01 -4.838884e+01 
6 0 2.868879e-01 1.998830e-01 -1.634892e+03 
7 0 2.399201e-01 3.039776e-01 -2.033872e+04 
8 0 2.779242e-01 3.970983e-01 -1.292673e+02 
9 0 2.094837e-01 7.204533e-02 2.856485e+02 
10 0 3.160159e-01 1.006402e-01 -6.072370e+01 
11 0 3.295238e-01 8.315241e-02 3.319260e+01 
ITEM: TIMESTEP 
180 
ITEM: NUMBER OF ATOMS 
12 
ITEM: BOX BOUNDS 
0.000000e+00 4.304126e-01 xlo xhi 
0.000000e+00 4.304126e-01 xlo xhi 
0.000000e+00 8.608251e-01 xlo xhi 
ITEM: ATOMS id type x y z 
0 0 3.274327e-02 2.924982e-01 9.375119e+01 
1 0 3.777228e-01 1.478635e-01 6.339865e+01 
2 0 2.539030e-01 3.819822e-01 -2.192312e+02 
3 0 3.031177e-02 3.729553e-01 2.512456e+02 
4 0 2.632797e-01 2.165448e-01 1.740351e+02 
5 0 2.495283e-01 2.226908e-01 -5.136912e+01 
6 0 3.307366e-01 7.276796e-02 -1.741108e+03 
7 0 1.741822e-01 2.570849e-01 -2.360175e+04 
8 0 3.215955e-01 3.852063e-02 -1.371064e+02 
9 0 4.100330e-01 8.346711e-02 3.287074e+02 
10 0 3.291756e-01 1.875039e-01 -6.468432e+01 
11 0 2.310379e-01 3.736760e-01 3.546413e+01 
ITEM: TIMESTEP 
210 
ITEM: NUMBER OF ATOMS 
12 
ITEM: BOX BOUNDS 
0.000000e+00 4.304126e-01 xlo xhi 
0.000000e+00 4.304126e-01 xlo xhi 
0.000000e+00 8.608251e-01 xlo xhi 
ITEM: ATOMS id type x y z 
0 0 1.597247e-01 1.540895e-01 9.915824e+01 
1 0 1.983466e-01 3.420447e-01 6.720656e+01 
2 0 2.744899e-01 2.283494e-01 -2.320583e+02 
3 0 3.753558e-01 2.455923e-01 2.658806e+02 
4 0 1.854219e-01 2.862154e-01 1.839074e+02 
5 0 1.050374e-02 5.530705e-02 -5.434940e+01 
6 0 3.745853e-01 3.760655e-01 -1.847325e+03 
7 0 1.084444e-01 2.101922e-01 -2.686478e+04 
8 0 3.652668e-01 1.103555e-01 -1.449456e+02 
9 0 1.801699e-01 9.488889e-02 3.717664e+02 
10 0 3.423353e-01 2.743676e-01 -6.864495e+01 
11 0 1.325521e-01 2.337871e-01 3.773566e+01 
ITEM: TIMESTEP 
240 
ITEM: NUMBER OF ATOMS 
12 
ITEM: BOX BOUNDS 
0.000000e+00 4.304126e-01 xlo xhi 
0.000000e+00 4.304126e-01 xlo xhi 
0.000000e+00 8.608251e-01 xlo xhi 
ITEM: ATOMS id type x y z 
0 0 2.867062e-01 1.568083e-02 1.045653e+02 
1 0 1.897041e-02 1.058133e-01 7.101446e+01 
2 0 2.950768e-01 7.471649e-02 -2.448853e+02 
3 0 2.899873e-01 1.182293e-01 2.805156e+02 
4 0 1.075640e-01 3.558861e-01 1.937797e+02 
5 0 2.018917e-01 3.183358e-01 -5.732967e+01 
6 0 4.184341e-01 2.489505e-01 -1.953541e+03 
7 0 4.270659e-02 1.632994e-01 -3.012781e+04 
8 0 4.089381e-01 1.821904e-01 -1.527848e+02 
9 0 3.807192e-01 1.063107e-01 4.148254e+02 
10 0 3.554949e-01 3.612313e-01 -7.260558e+01 
11 0 3.406619e-02 9.389813e-02 4.000719e+01 
ITEM: TIMESTEP 
270 
ITEM: NUMBER OF ATOMS 
12 
ITEM: BOX BOUNDS 
0.000000e+00 4.304126e-01 xlo xhi 
0.000000e+00 4.304126e-01 xlo xhi 
0.000000e+00 8.608251e-01 xlo xhi 
ITEM: ATOMS id type x y z 
0 0 4.136877e-01 3.076847e-01 1.099723e+02 
1 0 2.700068e-01 2.999945e-01 7.482237e+01 
2 0 3.156638e-01 3.514962e-01 -2.577124e+02 
3 0 2.046188e-01 4.212789e-01 2.951507e+02 
4 0 2.970616e-02 4.255568e-01 2.036521e+02 
5 0 3.932797e-01 1.509520e-01 -6.030995e+01 
6 0 3.187021e-02 1.218354e-01 -2.059757e+03 
7 0 4.073813e-01 1.164067e-01 -3.339084e+04 
8 0 2.219690e-02 2.540253e-01 -1.606240e+02 
9 0 1.508560e-01 1.177324e-01 4.578844e+02 
10 0 3.686546e-01 1.768239e-02 -7.656621e+01 
11 0 3.659929e-01 3.844217e-01 4.227872e+01 
ITEM: TIMESTEP 
300 
ITEM: NUMBER OF ATOMS 
12 
ITEM: BOX BOUNDS 
0.000000e+00 4.304126e-01 xlo xhi 
0.000000e+00 4.304126e-01 xlo xhi 
0.000000e+00 8.608251e-01 xlo xhi 
ITEM: ATOMS id type x y z 
0 0 1.102566e-01 1.692760e-01 1.153794e+02 
1 0 9.063059e-02 6.376307e-02 7.863028e+01 
2 0 3.362507e-01 1.978633e-01 -2.705395e+02 
3 0 1.192503e-01 2.939159e-01 3.097857e+02 
4 0 3.822609e-01 6.481486e-02 2.135244e+02 
5 0 1.542551e-01 4.139808e-01 -6.329023e+01 
6 0 7.571892e-02 4.251330e-01 -2.165974e+03 
7 0 3.416435e-01 6.951394e-02 -3.665387e+04 
8 0 6.586823e-02 3.258602e-01 -1.684632e+02 
9 0 3.514054e-01 1.291542e-01 5.009433e+02 
10 0 3.818143e-01 1.045461e-01 -8.052684e+01 
11 0 2.675070e-01 2.445328e-01 4.455025e+01 
ITEM: TIMESTEP 
330 
ITEM: NUMBER OF ATOMS 
12 
ITEM: BOX BOUNDS 
0.000000e+00 4.304126e-01 xlo xhi 
0.000000e+00 4.304126e-01 xlo xhi 
0.000000e+00 8.608251e-01 xlo xhi 
ITEM: ATOMS id type x y z 
0 0 2.372381e-01 3.086738e-02 1.207864e+02 
1 0 3.416670e-01 2.579442e-01 8.243819e+01 
2 0 3.568376e-01 4.423044e-02 -2.833666e+02 
3 0 3.388180e-02 1.665530e-01 3.244207e+02 
4 0 3.044030e-01 1.344855e-01 2.233967e+02 
5 0 3.456431e-01 2.465970e-01 -6.627050e+01 
6 0 1.195676e-01 2.980180e-01 -2.272190e+03 
7 0 2.759057e-01 2.262120e-02 -3.991691e+04 
8 0 1.095396e-01 3.976951e-01 -1.763023e+02 
9 0 1.215422e-01 1.405760e-01 5.440023e+02 
10 0 3.949740e-01 1.914098e-01 -8.448747e+01 
11 0 1.690212e-01 1.046438e-01 4.682178e+01 
ITEM: TIMESTEP 
360 
ITEM: NUMBER OF ATOMS 
12 
ITEM: BOX BOUNDS 
0.000000e+00 4.304126e-01 xlo xhi 
0.000000e+00 4.304126e-01 xlo xhi 
0.000000e+00 8.608251e-01 xlo xhi 
ITEM: ATOMS id type x y z 
0 0 3.642195e-01 3.228713e-01 1.261935e+02 
1 0 1.622908e-01 2.171284e-02 8.624609e+01 
2 0 3.774245e-01 3.210101e-01 -2.961937e+02 
3 0 3.789259e-01 3.918998e-02 3.390557e+02 
4 0 2.265451e-01 2.041562e-01 2.332691e+02 
5 0 1.066186e-01 7.921326e-02 -6.925078e+01 
6 0 1.634163e-01 1.709029e-01 -2.378406e+03 
7 0 2.101678e-01 4.061410e-01 -4.317994e+04 
8 0 1.532109e-01 3.911741e-02 -1.841415e+02 
9 0 3.220916e-01 1.519978e-01 5.870613e+02 
10 0 4.081337e-01 2.782735e-01 -8.844810e+01 
11 0 7.053530e-02 3.951675e-01 4.909331e+01 
ITEM: TIMESTEP 
390 
ITEM: NUMBER OF ATOMS 
12 
ITEM: BOX BOUNDS 
0.000000e+00 4.304126e-01 xlo xhi 
0.000000e+00 4.304126e-01 xlo xhi 
0.000000e+00 8.608251e-01 xlo xhi 
ITEM: ATOMS id type x y z 
0 0 6.078845e-02 1.844626e-01 1.316005e+02 
1 0 4.133271e-01 2.158940e-01 9.005400e+01 
2 0 3.980115e-01 1.673773e-01 -3.090208e+02 
3 0 2.935574e-01 3.422396e-01 3.536908e+02 
4 0 1.486873e-01 2.738268e-01 2.431414e+02 
5 0 2.980066e-01 3.422420e-01 -7.223106e+01 
6 0 2.072651e-01 4.378791e-02 -2.484622e+03 
7 0 1.444300e-01 3.592483e-01 -4.644297e+04 
8 0 1.968822e-01 1.109523e-01 -1.919807e+02 
9 0 9.222840e-02 1.634196e-01 6.301203e+02 
10 0 4.212934e-01 3.651372e-01 -9.240873e+01 
11 0 4.024620e-01 2.552785e-01 5.136484e+01 
ITEM: TIMESTEP 
420 
ITEM: NUMBER OF ATOMS 
12 
ITEM: BOX BOUNDS 
0.000000e+00 4.304126e-01 xlo xhi 
0.000000e+00 4.304126e-01 xlo xhi 
0.000000e+00 8.608251e-01 xlo xhi 
ITEM: ATOMS id type x y z 
0 0 1.877699e-01 4.605393e-02 1.370076e+02 
1 0 2.339510e-01 4.100752e-01 9.386191e+01 
2 0 4.185984e-01 1.374439e-02 -3.218479e+02 
3 0 2.081888e-01 2.148766e-01 3.683258e+02 
4 0 7.082941e-02 3.434975e-01 2.530137e+02 
5 0 5.898199e-02 1.748583e-01 -7.521133e+01 
6 0 2.511138e-01 3.470854e-01 -2.590839e+03 
7 0 7.869217e-02 3.123555e-01 -4.970600e+04 
8 0 2.405535e-01 1.827872e-01 -1.998199e+02 
9 0 2.927778e-01 1.748413e-01 6.731792e+02 
10 0 4.040532e-03 2.158829e-02 -9.636935e+01 
11 0 3.039761e-01 1.153896e-01 5.363637e+01 
ITEM: TIMESTEP 
450 
ITEM: NUMBER OF ATOMS 
12 
ITEM: BOX BOUNDS 
0.000000e+00 4.304126e-01 xlo xhi 
0.000000e+00 4.304126e-01 xlo xhi 
0.000000e+00 8.608251e-01 xlo xhi 
ITEM: ATOMS id type x y z 
0 0 3.147514e-01 3.380578e-01 1.424146e+02 
1 0 5.457476e-02 1.738438e-01 9.766982e+01 
2 0 8.772743e-03 2.905241e-01 -3.346750e+02 
3 0 1.228203e-01 8.751360e-02 3.829608e+02 
4 0 4.233841e-01 4.131681e-01 2.628860e+02 
5 0 2.503700e-01 7.474477e-03 -7.819161e+01 
6 0 2.949625e-01 2.199704e-01 -2.697055e+03 
7 0 1.295434e-02 2.654628e-01 -5.296903e+04 
8 0 2.842249e-01 2.546221e-01 -2.076590e+02 
9 0 6.291458e-02 1.862631e-01 7.162382e+02 
10 0 1.720022e-02 1.084520e-01 -1.003300e+02 
11 0 2.054903e-01 4.059132e-01 5.590790e+01 
ITEM: TIMESTEP 
480 
ITEM: NUMBER OF ATOMS 
12 
ITEM: BOX BOUNDS 
0.000000e+00 4.304126e-01 xlo xhi 
0.000000e+00 4.304126e-01 xlo xhi 
0.000000e+00 8.608251e-01 xlo xhi 
ITEM: ATOMS id type x y z 
0 0 1.132030e-02 1.996491e-01 1.478217e+02 
1 0 3.056111e-01 3.680249e-01 1.014777e+02 
2 0 2.935967e-02 1.368912e-01 -3.475021e+02 
3 0 3.745184e-02 3.905632e-01 3.975959e+02 
4 0 3.455262e-01 5.242624e-02 2.727584e+02 
5 0 1.134541e-02 2.705033e-01 -8.117189e+01 
6 0 3.388112e-01 9.285539e-02 -2.803271e+03 
7 0 3.776291e-01 2.185700e-01 -5.623206e+04 
8 0 3.278962e-01 3.264570e-01 -2.154982e+02 
9 0 2.634639e-01 1.976849e-01 7.592972e+02 
10 0 3.035991e-02 1.953157e-01 -1.042906e+02 
11 0 1.070044e-01 2.660242e-01 5.817943e+01 
ITEM: TIMESTEP 
510 
ITEM: NUMBER OF ATOMS 
12 
ITEM: BOX BOUNDS 
0.000000e+00 4.304126e-01 xlo xhi 
0.000000e+00 4.304126e-01 xlo xhi 
0.000000e+00 8.608251e-01 xlo xhi 
ITEM: ATOMS id type x y z 
0 0 1.383018e-01 6.124047e-02 1.532287e+02 
1 0 1.262349e-01 1.317935e-01 1.052856e+02 
2 0 4.994659e-02 4.136709e-01 -3.603292e+02 
3 0 3.824959e-01 2.632002e-01 4.122309e+02 
4 0 2.676684e-01 1.220969e-01 2.826307e+02 
5 0 2.027334e-01 1.031195e-01 -8.415216e+01 
6 0 3.826599e-01 3.961529e-01 -2.909488e+03 
7 0 3.118912e-01 1.716773e-01 -5.949509e+04 
8 0 3.715675e-01 3.982918e-01 -2.233374e+02 
9 0 3.360076e-02 2.091067e-01 8.023562e+02 
10 0 4.351960e-02 2.821794e-01 -1.082512e+02 
11 0 8.518548e-03 1.261353e-01 6.045096e+01 
ITEM: TIMESTEP 
540 
ITEM: NUMBER OF ATOMS 
12 
ITEM: BOX BOUNDS 
0.000000e+00 4.304126e-01 xlo xhi 
0.000000e+00 4.304126e-01 xlo xhi 
0.000000e+00 8.608251e-01 xlo xhi 
ITEM: ATOMS id type x y z 
0 0 2.652832e-01 3.532444e-01 1.586358e+02 
1 0 3.772713e-01 3.259747e-01 1.090935e+02 
2 0 7.053351e-02 2.600380e-01 -3.731562e+02 
3 0 2.971274e-01 1.358372e-01 4.268659e+02 
4 0 1.898105e-01 1.917675e-01 2.925030e+02 
5 0 3.941214e-01 3.661482e-01 -8.713244e+01 
6 0 4.265086e-01 2.690379e-01 -3.015704e+03 
7 0 2.461534e-01 1.247846e-01 -6.275813e+04 
8 0 4.152389e-01 3.971418e-02 -2.311766e+02 
9 0 2.341501e-01 2.205284e-01 8.454152e+02 
10 0 5.667929e-02 3.690431e-01 -1.122119e+02 
11 0 3.404452e-01 4.166589e-01 6.272249e+01 
ITEM: TIMESTEP 
570 
ITEM: NUMBER OF ATOMS 
12 
ITEM: BOX BOUNDS 
0.000000e+00 4.304126e-01 xlo xhi 
0.000000e+00 4.304126e-01 xlo xhi 
0.000000e+00 8.608251e-01 xlo xhi 
ITEM: ATOMS id type x y z 
0 0 3.922647e-01 2.148357e-01 1.640428e+02 
1 0 1.978951e-01 8.974331e-02 1.129014e+02 
2 0 9.112044e-02 1.064052e-01 -3.859833e+02 
3 0 2.117589e-01 8.474250e-03 4.415009e+02 
4 0 1.119527e-01 2.614382e-01 3.023754e+02 
5 0 1.550968e-01 1.987645e-01 -9.011271e+01 
6 0 3.994476e-02 1.419229e-01 -3.121920e+03 
7 0 1.804156e-01 7.789182e-02 -6.602116e+04 
8 0 2.849762e-02 1.115491e-01 -2.390157e+02 
9 0 4.286940e-03 2.319502e-01 8.884741e+02 
10 0 6.983898e-02 2.549419e-02 -1.161725e+02 
11 0 2.419594e-01 2.767700e-01 6.499402e+01 
ITEM: TIMESTEP 
600 
ITEM: NUMBER OF ATOMS 
12 
ITEM: BOX BOUNDS 
0.000000e+00 4.304126e-01 xlo xhi 
0.000000e+00 4.304126e-01 xlo xhi 
0.000000e+00 8.608251e-01 xlo xhi 
ITEM: ATOMS id type x y z 
0 0 8.883362e-02 7.642702e-02 1.694499e+02 
1 0 1.851894e-02 2.839245e-01 1.167094e+02 
2 0 1.117074e-01 3.831848e-01 -3.988104e+02 
3 0 1.263904e-01 3.115238e-01 4.561360e+02 
4 0 3.409480e-02 3.311089e-01 3.122477e+02 
5 0 3.464848e-01 3.138069e-02 -9.309299e+01 
6 0 8.379347e-02 1.480786e-02 -3.228137e+03 
7 0 1.146777e-01 3.099907e-02 -6.928419e+04 
8 0 7.216895e-02 1.833840e-01 -2.468549e+02 
9 0 2.048363e-01 2.433720e-01 9.315331e+02 
10 0 8.299867e-02 1.123579e-01 -1.201331e+02 
11 0 1.434735e-01 1.368810e-01 6.726555e+01 
ITEM: TIMESTEP 
630 
ITEM: NUMBER OF ATOMS 
12 
ITEM: BOX BOUNDS 
0.000000e+00 4.304126e-01 xlo xhi 
0.000000e+00 4.304126e-01 xlo xhi 
0.000000e+00 8.608251e-01 xlo xhi 
ITEM: ATOMS id type x y z 
0 0 2.158151e-01 3.684309e-01 1.748569e+02 
1 0 2.695553e-01 4.769308e-02 1.205173e+02 
2 0 1.322943e-01 2.295520e-01 -4.116375e+02 
3 0 4.102188e-02 1.841609e-01 4.707710e+02 
4 0 3.866495e-01 4.007795e-01 3.221200e+02 
5 0 1.074602e-01 2.944095e-01 -9.607327e+01 
6 0 1.276422e-01 3.181054e-01 -3.334353e+03 
7 0 4.893992e-02 4.145189e-01 -7.254722e+04 
8 0 1.158403e-01 2.552188e-01 -2.546941e+02 
9 0 4.053857e-01 2.547938e-01 9.745921e+02 
10 0 9.615836e-02 1.992216e-01 -1.240938e+02 
11 0 4.498766e-02 4.274046e-01 6.953708e+01 
ITEM: TIMESTEP 
660 
ITEM: NUMBER OF ATOMS 
12 
ITEM: BOX BOUNDS 
0.000000e+00 4.304126e-01 xlo xhi 
0.000000e+00 4.304126e-01 xlo xhi 
0.000000e+00 8.608251e-01 xlo xhi 
ITEM: ATOMS id type x y z 
0 0 3.427966e-01 2.300222e-01 1.802640e+02 
1 0 9.017912e-02 2.418742e-01 1.243252e+02 
2 0 1.528812e-01 7.591911e-02 -4.244646e+02 
3 0 3.860659e-01 5.679788e-02 4.854060e+02 
4 0 3.087916e-01 4.003761e-02 3.319924e+02 
5 0 2.988482e-01 1.270257e-01 -9.905354e+01 
6 0 1.714909e-01 1.909904e-01 -3.440569e+03 
7 0 4.136146e-01 3.676261e-01 -7.581025e+04 
8 0 1.595116e-01 3.270537e-01 -2.625333e+02 
9 0 1.755225e-01 2.662156e-01 1.017651e+03 
10 0 1.093181e-01 2.860853e-01 -1.280544e+02 
11 0 3.769143e-01 2.875157e-01 7.180861e+01 
ITEM: TIMESTEP 
690 
ITEM: NUMBER OF ATOMS 
12 
ITEM: BOX BOUNDS 
0.000000e+00 4.304126e-01 xlo xhi 
0.000000e+00 4.304126e-01 xlo xhi 
0.000000e+00 8.608251e-01 xlo xhi 
ITEM: ATOMS id type x y z 
0 0 3.936547e-02 9.161357e-02 1.856710e+02 
1 0 3.412155e-01 5.642846e-03 1.281331e+02 
2 0 1.734681e-01 3.526988e-01 -4.372917e+02 
3 0 3.006974e-01 3.598475e-01 5.000410e+02 
4 0 2.309338e-01 1.097083e-01 3.418647e+02 
5 0 5.982366e-02 3.900545e-01 -1.020338e+02 
6 0 2.153396e-01 6.387535e-02 -3.546786e+03 
7 0 3.478768e-01 3.207334e-01 -7.907328e+04 
8 0 2.031829e-01 3.988886e-01 -2.703725e+02 
9 0 3.760719e-01 2.776373e-01 1.060710e+03 
10 0 1.224777e-01 3.729489e-01 -1.320150e+02 
11 0 2.784285e-01 1.476267e-01 7.408014e+01 
ITEM: TIMESTEP 
720 
ITEM: NUMBER OF ATOMS 
12 
ITEM: BOX BOUNDS 
0.000000e+00 4.304126e-01 xlo xhi 
0.000000e+00 4.304126e-01 xlo xhi 
0.000000e+00 8.608251e-01 xlo xhi 
ITEM: ATOMS id type x y z 
0 0 1.663469e-01 3.836175e-01 1.910781e+02 
1 0 1.618393e-01 1.998240e-01 1.319410e+02 
2 0 1.940551e-01 1.990659e-01 -4.501188e+02 
3 0 2.153289e-01 2.324845e-01 5.146761e+02 
4 0 1.530759e-01 1.793789e-01 3.517370e+02 
5 0 2.512116e-01 2.226707e-01 -1.050141e+02 
6 0 2.591883e-01 3.671729e-01 -3.653002e+03 
7 0 2.821390e-01 2.738407e-01 -8.233631e+04 
8 0 2.468543e-01 4.031096e-02 -2.782116e+02 
9 0 1.462087e-01 2.890591e-01 1.103769e+03 
10 0 1.356374e-01 2.940008e-02 -1.359756e+02 
11 0 1.799426e-01 7.737788e-03 7.635167e+01 
ITEM: TIMESTEP 
750 
ITEM: NUMBER OF ATOMS 
12 
ITEM: BOX BOUNDS 
0.000000e+00 4.304126e-01 xlo xhi 
0.000000e+00 4.304126e-01 xlo xhi 
0.000000e+00 8.608251e-01 xlo xhi 
ITEM: ATOMS id type x y z 
0 0 2.933284e-01 2.452088e-01 1.964851e+02 
1 0 4.128757e-01 3.940052e-01 1.357489e+02 
2 0 2.146420e-01 4.543306e-02 -4.629459e+02 
3 0 1.299604e-01 1.051215e-01 5.293111e+02 
4 0 7.521806e-02 2.490496e-01 3.616094e+02 
5 0 1.218708e-02 5.528690e-02 -1.079944e+02 
6 0 3.030370e-01 2.400579e-01 -3.759218e+03 
7 0 2.164012e-01 2.269479e-01 -8.559935e+04 
8 0 2.905256e-01 1.121458e-01 -2.860508e+02 
9 0 3.467580e-01 3.004809e-01 1.146828e+03 
10 0 1.487971e-01 1.162638e-01 -1.399363e+02 
11 0 8.145676e-02 2.982614e-01 7.862320e+01 
ITEM: TIMESTEP 
780 
ITEM: NUMBER OF ATOMS 
12 
ITEM: BOX BOUNDS 
0.000000e+00 4.304126e-01 xlo xhi 
0.000000e+00 4.304126e-01 xlo xhi 
0.000000e+00 8.608251e-01 xlo xhi 
ITEM: ATOMS id type x y z 
0 0 4.203099e-01 1.068001e-01 2.018922e+02 
1 0 2.334995e-01 1.577738e-01 1.395568e+02 
2 0 2.352289e-01 3.222127e-01 -4.757730e+02 
3 0 4.459191e-02 4.081711e-01 5.439461e+02 
4 0 4.277728e-01 3.187202e-01 3.714817e+02 
5 0 2.035751e-01 3.183157e-01 -1.109747e+02 
6 0 3.468857e-01 1.129428e-01 -3.865434e+03 
7 0 1.506633e-01 1.800552e-01 -8.886238e+04 
8 0 3.341969e-01 1.839807e-01 -2.938900e+02 
9 0 1.168948e-01 3.119027e-01 1.189887e+03 
10 0 1.619568e-01 2.031275e-01 -1.438969e+02 
11 0 4.133835e-01 1.583725e-01 8.089473e+01 
ITEM: TIMESTEP 
810 
ITEM: NUMBER OF ATOMS 
12 
ITEM: BOX BOUNDS 
0.000000e+00 4.304126e-01 xlo xhi 
0.000000e+00 4.304126e-01 xlo xhi 
0.000000e+00 8.608251e-01 xlo xhi 
ITEM: ATOMS id type x y z 
0 0 1.168788e-01 3.988040e-01 2.072992e+02 
1 0 5.412329e-02 3.519549e-01 1.433647e+02 
2 0 2.558158e-01 1.685799e-01 -4.886001e+02 
3 0 3.896360e-01 2.808081e-01 5.585812e+02 
4 0 3.499149e-01 3.883909e-01 3.813540e+02 
5 0 3.949631e-01 1.509319e-01 -1.139549e+02 
6 0 3.907344e-01 4.162404e-01 -3.971651e+03 
7 0 8.492550e-02 1.331624e-01 -9.212541e+04 
8 0 3.778682e-01 2.558156e-01 -3.017292e+02 
9 0 3.174442e-01 3.233244e-01 1.232946e+03 
10 0 1.751165e-01 2.899912e-01 -1.478575e+02 
11 0 3.148976e-01 1.848351e-02 8.316626e+01 
ITEM: TIMESTEP 
840 
ITEM: NUMBER OF ATOMS 
12 
ITEM: BOX BOUNDS 
0.000000e+00 4.304126e-01 xlo xhi 
0.000000e+00 4.304126e-01 xlo xhi 
0.000000e+00 8.608251e-01 xlo xhi 
ITEM: ATOMS id type x y z 
0 0 2.438603e-01 2.603953e-01 2.127063e+02 
1 0 3.051597e-01 1.157235e-01 1.471726e+02 
2 0 2.764027e-01 1.494701e-02 -5.014271e+02 
3 0 3.042675e-01 1.534451e-01 5.732162e+02 
4 0 2.720570e-01 2.764899e-02 3.912264e+02 
5 0 1.559385e-01 4.139607e-01 -1.169352e+02 
6 0 4.170597e-03 2.891253e-01 -4.077867e+03 
7 0 1.918767e-02 8.626969e-02 -9.538844e+04 
8 0 4.215396e-01 3.276505e-01 -3.095683e+02 
9 0 8.758103e-02 3.347462e-01 1.276005e+03 
10 0 1.882762e-01 3.768548e-01 -1.518182e+02 
11 0 2.164117e-01 3.090071e-01 8.543779e+01 
ITEM: TIMESTEP 
870 
ITEM: NUMBER OF ATOMS 
12 
ITEM: BOX BOUNDS 
0.000000e+00 4.304126e-01 xlo xhi 
0.000000e+00 4.304126e-01 xlo xhi 
0.000000e+00 8.608251e-01 xlo xhi 
ITEM: ATOMS id type x y z 
0 0 3.708417e-01 1.219867e-01 2.181133e+02 
1 0 1.257835e-01 3.099047e-01 1.509805e+02 
2 0 2.969897e-01 2.917267e-01 -5.142542e+02 
3 0 2.188990e-01 2.608215e-02 5.878512e+02 
4 0 1.941992e-01 9.731964e-02 4.010987e+02 
5 0 3.473265e-01 2.465769e-01 -1.199155e+02 
6 0 4.801931e-02 1.620103e-01 -4.184083e+03 
7 0 3.838624e-01 3.937695e-02 -9.865147e+04 
8 0 3.479834e-02 3.994854e-01 -3.174075e+02 
9 0 2.881304e-01 3.461680e-01 1.319064e+03 
10 0 2.014359e-01 3.330598e-02 -1.557788e+02 
11 0 1.179259e-01 1.691182e-01 8.770932e+01 
ITEM: TIMESTEP 
900 
ITEM: NUMBER OF ATOMS 
12 
ITEM: BOX BOUNDS 
0.000000e+00 4.304126e-01 xlo xhi 
0.000000e+00 4.304126e-01 xlo xhi 
0.000000e+00 8.608251e-01 xlo xhi 
ITEM: ATOMS id type x y z 
0 0 6.741065e-02 4.139906e-01 2.235204e+02 
1 0 3.768198e-01 7.367332e-02 1.547884e+02 
2 0 3.175766e-01 1.380938e-01 -5.270813e+02 
3 0 1.335305e-01 3.291317e-01 6.024862e+02 
4 0 1.163413e-01 1.669903e-01 4.109710e+02 
5 0 1.083019e-01 7.919312e-02 -1.228958e+02 
6 0 9.186802e-02 3.489530e-02 -4.290300e+03 
7 0 3.181246e-01 4.228968e-01 -1.019145e+05 
8 0 7.846967e-02 4.090773e-02 -3.252467e+02 
9 0 5.826721e-02 3.575898e-01 1.362123e+03 
10 0 2.145956e-01 1.201697e-01 -1.597394e+02 
11 0 1.944001e-02 2.922923e-02 8.998085e+01 
ITEM: TIMESTEP 
930 
ITEM: NUMBER OF ATOMS 
12 
ITEM: BOX BOUNDS 
0.000000e+00 4.304126e-01 xlo xhi 
0.000000e+00 4.304126e-01 xlo xhi 
0.000000e+00 8.608251e-01 xlo xhi 
ITEM: ATOMS id type x y z 
0 0 1.943921e-01 2.755819e-01 2.289274e+02 
1 0 1.974436e-01 2.678545e-01 1.585963e+02 
2 0 3.381635e-01 4.148735e-01 -5.399084e+02 
3 0 4.816195e-02 2.017688e-01 6.171213e+02 
4 0 3.848345e-02 2.366610e-01 4.208433e+02 
5 0 2.996899e-01 3.422219e-01 -1.258760e+02 
6 0 1.357167e-01 3.381928e-01 -4.396516e+03 
7 0 2.523867e-01 3.760040e-01 -1.051775e+05 
8 0 1.221410e-01 1.127426e-01 -3.330859e+02 
9 0 2.588166e-01 3.690116e-01 1.405182e+03 
10 0 2.277553e-01 2.070334e-01 -1.637000e+02 
11 0 3.513667e-01 3.197528e-01 9.225238e+01 
ITEM: TIMESTEP 
960 
ITEM: NUMBER OF ATOMS 
12 
ITEM: BOX BOUNDS 
0.000000e+00 4.304126e-01 xlo xhi 
0.000000e+00 4.304126e-01 xlo xhi 
0.000000e+00 8.608251e-01 xlo xhi 
ITEM: ATOMS id type x y z 
0 0 3.213736e-01 1.371732e-01 2.343344e+02 
1 0 1.806746e-02 3.162309e-02 1.624042e+02 
2 0 3.587504e-01 2.612406e-01 -5.527355e+02 
3 0 3.932060e-01 7.440577e-02 6.317563e+02 
4 0 3.910381e-01 3.063316e-01 4.307157e+02 
5 0 6.066533e-02 1.748381e-01 -1.288563e+02 
6 0 1.795654e-01 2.110778e-01 -4.502732e+03 
7 0 1.866489e-01 3.291113e-01 -1.084406e+05 
8 0 1.658123e-01 1.845775e-01 -3.409250e+02 
9 0 2.895339e-02 3.804333e-01 1.448241e+03 
10 0 2.409150e-01 2.938971e-01 -1.676607e+02 
11 0 2.528808e-01 1.798639e-01 9.452391e+01 
ITEM: TIMESTEP 
990 
ITEM: NUMBER OF ATOMS 
12 
ITEM: BOX BOUNDS 
0.000000e+00 4.304126e-01 xlo xhi 
0.000000e+00 4.304126e-01 xlo xhi 
0.000000e+00 8.608251e-01 xlo xhi 
ITEM: ATOMS id type x y z 
0 0 1.794250e-02 4.291771e-01 2.397415e+02 
1 0 2.691038e-01 2.258042e-01 1.662121e+02 
2 0 3.793374e-01 1.076078e-01 -5.655626e+02 
3 0 3.078375e-01 3.774554e-01 6.463913e+02 
4 0 3.131803e-01 3.760023e-01 4.405880e+02 
5 0 2.520533e-01 7.454333e-03 -1.318366e+02 
6 0 2.234141e-01 8.396278e-02 -4.608949e+03 
7 0 1.209111e-01 2.822185e-01 -1.117036e+05 
8 0 2.094837e-01 2.564124e-01 -3.487642e+02 
9 0 2.295028e-01 3.918551e-01 1.491300e+03 
10 0 2.540746e-01 3.807607e-01 -1.716213e+02 
11 0 1.543950e-01 3.997495e-02 9.679544e+01 
